 Gaussian 16, Revision A.03,
 Gaussian 16:  ES64L-G16RevA.03 25-Dec-2016

 -------------------------------------------
 # wB97XD Gen SCRF=(Solvent=TetraHydroFuran)
 -------------------------------------------

 ---------------------
 Anth Prod Calculation
 ---------------------
 Symbolic Z-matrix:
 Charge =  0 Multiplicity = 1

                         Standard orientation:
 ---------------------------------------------------------------------
 Center     Atomic      Atomic             Coordinates (Angstroms)
 Number     Number       Type             X           Y           Z
 ---------------------------------------------------------------------
      1         25           0       -2.244279    1.557982   -1.060551
      2          6           0       -3.004538    3.236193   -0.983061
      3          8           0       -3.470557    4.276543   -0.974031
      4          6           0       -3.727140    0.939353   -1.984191
      5          8           0       -4.623030    0.598694   -2.597881
      6          6           0       -1.449929    1.980191   -2.616751
      7          7           0       -1.521440   -0.419689   -0.983641
      8          6           0       -1.932292   -2.702928   -0.388601
      9          6           0       -0.622232   -3.048219   -0.707121
     10          6           0       -0.283261   -0.773149   -1.340791
     11          1           0       -2.648383   -3.438628   -0.021011
     12          1           0       -0.265543   -4.072589   -0.579651
     13          7           0       -2.607050    0.536802    1.932579
     14          6           0       -1.709250   -0.017038    2.410269
     15          6           0       -0.552011   -0.679219    2.945029
     16          6           0        0.426730    0.070220    3.614119
     17          6           0        1.571389   -0.563921    4.084579
     18          6           0       -0.391252   -2.060059    2.763939
     19          1           0        0.285871    1.141450    3.760209
     20          1           0       -1.166372   -2.635789    2.257969
     21          7           0       -0.659249    2.278371    0.153789
     22          6           0        0.027762    3.414820    2.148829
     23          6           0        1.365072    3.138959    1.873449
     24          1           0       -0.264187    3.966781    3.042319
     25          6           0       -2.338941   -1.383068   -0.517961
     26          1           0       -3.361121   -1.109237   -0.235741
     27          6           0       -0.950008    2.954541    1.280609
     28          1           0       -2.004638    3.123942    1.499679
     29          1           0        2.337250    0.016129    4.602129
     30          8           0       -0.914109    2.233091   -3.594891
     31         16           0        2.401579   -0.594561    0.500969
     32         16           0        5.398739   -1.169933   -0.417411
     33          6           0        0.235888   -2.057600   -1.185171
     34          6           0        1.655758   -2.326321   -1.539911
     35          6           0        1.951068   -3.265521   -2.533951
     36          6           0        3.267087   -3.518192   -2.911381
     37          6           0        4.312078   -2.834123   -2.298081
     38          6           0        4.039208   -1.925222   -1.273071
     39          6           0        2.716419   -1.665671   -0.888531
     40          1           0        1.130127   -3.786300   -3.031031
     41          1           0        3.479587   -4.242112   -3.699781
     42          1           0        5.345418   -3.010303   -2.603091
     43          6           0        3.498370    0.764158    0.143739
     44          6           0        4.819840    0.498757   -0.242801
     45          6           0        5.724421    1.545416   -0.436521
     46          6           0        5.324312    2.857357   -0.203521
     47          6           0        4.013822    3.128608    0.179489
     48          6           0        3.081521    2.096868    0.336339
     49          1           0        6.743871    1.325296   -0.759151
     50          1           0        6.034602    3.674876   -0.337291
     51          1           0        3.694093    4.160618    0.338089
     52          6           0        1.682062    2.435789    0.712129
     53          1           0        2.153332    3.458539    2.558389
     54          6           0        0.629231    2.067230   -0.126241
     55          1           0        0.863111    1.591380   -1.075281
     56          1           0        0.345300   -0.009780   -1.794241
     57          6           0        1.740118   -1.935701    3.892099
     58          6           0        0.760178   -2.681670    3.236599
     59          1           0        0.891447   -3.755550    3.093789
     60          1           0        2.643508   -2.427961    4.257289
     61         35           0       -5.847101   -1.841956    0.538779
 ---------------------------------------------------------------------

 SCF Done:  E(RwB97XD) =  -6142.56549600     A.U. after   22 cycles

 The electronic state is 1-A.
 Alpha  occ. eigenvalues -- -483.01505-235.72694 -89.05265 -89.05141 -62.56416
 Alpha  occ. eigenvalues --  -56.35290 -56.35288 -56.35288 -27.49115 -23.55098
 Alpha  occ. eigenvalues --  -23.54703 -23.54657 -19.34647 -19.34452 -19.34361
 Alpha  occ. eigenvalues --  -14.50452 -14.49923 -14.45423 -10.41930 -10.41911
 Alpha  occ. eigenvalues --  -10.41746 -10.36378 -10.35987 -10.35898 -10.35340
 Alpha  occ. eigenvalues --  -10.35196 -10.35014 -10.34938 -10.34846 -10.34746
 Alpha  occ. eigenvalues --  -10.34686 -10.34095 -10.33873 -10.33666 -10.33562
 Alpha  occ. eigenvalues --  -10.33446 -10.33280 -10.32686 -10.32311 -10.32230
 Alpha  occ. eigenvalues --  -10.31774 -10.31730 -10.31611 -10.31583 -10.31551
 Alpha  occ. eigenvalues --  -10.31389 -10.31348 -10.31267 -10.31233 -10.31211
 Alpha  occ. eigenvalues --   -8.70497  -8.08559  -8.08432  -6.51901  -6.51897
 Alpha  occ. eigenvalues --   -6.51895  -6.03427  -6.03300  -6.03069  -6.02936
 Alpha  occ. eigenvalues --   -6.02498  -6.02382  -3.28382  -2.62404  -2.62403
 Alpha  occ. eigenvalues --   -2.62401  -2.62398  -2.62398  -2.14251  -2.13321
 Alpha  occ. eigenvalues --   -2.13198  -1.25816  -1.25615  -1.25471  -1.09864
 Alpha  occ. eigenvalues --   -1.09137  -1.03204  -1.01752  -0.99611  -0.98687
 Alpha  occ. eigenvalues --   -0.95656  -0.94565  -0.92698  -0.92113  -0.90856
 Alpha  occ. eigenvalues --   -0.89180  -0.88974  -0.87334  -0.87292  -0.86416
 Alpha  occ. eigenvalues --   -0.83589  -0.79411  -0.77075  -0.76588  -0.76495
 Alpha  occ. eigenvalues --   -0.75881  -0.75393  -0.74555  -0.72939  -0.72658
 Alpha  occ. eigenvalues --   -0.71152  -0.70550  -0.69883  -0.67657  -0.67082
 Alpha  occ. eigenvalues --   -0.66876  -0.66115  -0.65679  -0.64826  -0.62668
 Alpha  occ. eigenvalues --   -0.62051  -0.61252  -0.60297  -0.59727  -0.59394
 Alpha  occ. eigenvalues --   -0.58376  -0.58062  -0.57808  -0.57722  -0.57569
 Alpha  occ. eigenvalues --   -0.57495  -0.57259  -0.57237  -0.56349  -0.56086
 Alpha  occ. eigenvalues --   -0.55439  -0.55093  -0.54867  -0.54646  -0.54426
 Alpha  occ. eigenvalues --   -0.53570  -0.53322  -0.53110  -0.53002  -0.52660
 Alpha  occ. eigenvalues --   -0.52581  -0.52279  -0.51822  -0.51772  -0.50875
 Alpha  occ. eigenvalues --   -0.49913  -0.49405  -0.48640  -0.48567  -0.48442
 Alpha  occ. eigenvalues --   -0.47774  -0.46218  -0.46087  -0.45796  -0.45472
 Alpha  occ. eigenvalues --   -0.44695  -0.44377  -0.43834  -0.43595  -0.42765
 Alpha  occ. eigenvalues --   -0.42179  -0.41097  -0.40563  -0.40131  -0.38816
 Alpha  occ. eigenvalues --   -0.37799  -0.37205  -0.35789  -0.35637  -0.35168
 Alpha  occ. eigenvalues --   -0.34604  -0.34560  -0.34297  -0.33476  -0.31526
 Alpha  occ. eigenvalues --   -0.30459  -0.29684  -0.29641  -0.29619
 Alpha virt. eigenvalues --   -0.02669  -0.00601  -0.00263   0.00075   0.00461
 Alpha virt. eigenvalues --    0.01031   0.01757   0.02553   0.03017   0.03183
 Alpha virt. eigenvalues --    0.03305   0.03885   0.04286   0.05426   0.05681

 Mulliken charges:
               1
     1  Mn   0.259431
     2  C    0.188423
     3  O   -0.088387
     4  C    0.185943
     5  O   -0.073998
     6  C   -0.048192
     7  N   -0.135041
     8  C   -0.205071
     9  C   -0.121941
    10  C    0.015106
    11  H    0.160880
    12  H    0.146991
    13  N   -0.127015
    14  C   -0.048442
    15  C    0.271805
    16  C   -0.246621
    17  C   -0.092051
    18  C   -0.252820
    19  H    0.172621
    20  H    0.179559
    21  N   -0.137946
    22  C   -0.187764
    23  C   -0.145430
    24  H    0.153228
    25  C    0.086484
    26  H    0.136334
    27  C    0.073187
    28  H    0.144388
    29  H    0.139901
    30  O   -0.098921
    31  S   -0.144731
    32  S   -0.009782
    33  C    0.094880
    34  C    0.127269
    35  C   -0.203801
    36  C   -0.112677
    37  C   -0.141562
    38  C    0.052662
    39  C   -0.091413
    40  H    0.136872
    41  H    0.142486
    42  H    0.127308
    43  C   -0.098041
    44  C    0.057834
    45  C   -0.142002
    46  C   -0.112512
    47  C   -0.208291
    48  C    0.143480
    49  H    0.127601
    50  H    0.142522
    51  H    0.136009
    52  C    0.101965
    53  H    0.149725
    54  C    0.023710
    55  H    0.139370
    56  H    0.143695
    57  C   -0.120858
    58  C   -0.080211
    59  H    0.142003
    60  H    0.142603
    61  Br  -0.970758
 Sum of Mulliken charges =  -0.00000

 Dipole moment (field-independent basis, Debye):
    X=             28.7145    Y=              8.1207    Z=             -0.0631  Tot=             29.8408
 Quadrupole moment (field-independent basis, Debye-Ang):
   XX=           -403.7001   YY=           -238.9826   ZZ=           -255.4035
   XY=            -37.7974   XZ=             16.5396   YZ=             21.9534

 Normal termination of Gaussian 16 at Wed Mar 22 16:42:06 2023.
