 Gaussian 16, Revision A.03,
 Gaussian 16:  ES64L-G16RevA.03 25-Dec-2016

 -------------------------------------------------------
 # wB97XD Gen SCRF=(Solvent=TetraHydroFuran) Opt=Restart
 -------------------------------------------------------

 SCF Done:  E(RwB97XD) =  -6140.25623207     A.U. after   13 cycles
 SCF Done:  E(RwB97XD) =  -6140.25623118     A.U. after   12 cycles
 SCF Done:  E(RwB97XD) =  -6140.25623196     A.U. after   12 cycles
 SCF Done:  E(RwB97XD) =  -6140.25623200     A.U. after   11 cycles
 SCF Done:  E(RwB97XD) =  -6140.25623096     A.U. after   12 cycles
 SCF Done:  E(RwB97XD) =  -6140.25623084     A.U. after   10 cycles
 Optimization completed.
    -- Stationary point found.

                         Standard orientation:
 ---------------------------------------------------------------------
 Center     Atomic      Atomic             Coordinates (Angstroms)
 Number     Number       Type             X           Y           Z
 ---------------------------------------------------------------------
      1         25           0        1.495971   -0.012874   -0.054935
      2          6           0        2.625728   -1.349529   -0.554324
      3          8           0        3.319304   -2.213390   -0.839822
      4          6           0        2.635223    1.320986   -0.539777
      5          8           0        3.334283    2.183320   -0.816392
      6          6           0        0.778537   -0.001631   -1.699901
      7          7           0        0.115626    1.461175    0.709720
      8          6           0       -0.505625    3.140871    2.303496
      9          6           0       -1.767866    3.262074    1.729516
     10          6           0       -1.085484    1.613199    0.143257
     11          1           0       -0.218515    3.739703    3.168083
     12          1           0       -2.507706    3.953327    2.138656
     13          7           0        4.260863   -0.013557   -3.239650
     14          6           0        5.175635   -0.002629   -2.529786
     15          6           0        6.304335    0.011664   -1.637489
     16          6           0        6.099164   -0.008550   -0.249941
     17          6           0        7.198108    0.006552    0.603508
     18          6           0        7.604304    0.046504   -2.163786
     19          1           0        5.090444   -0.035228    0.166369
     20          1           0        7.753492    0.062027   -3.244614
     21          7           0        0.103530   -1.484366    0.692377
     22          6           0       -0.528259   -3.181536    2.263386
     23          6           0       -1.792723   -3.283926    1.690638
     24          1           0       -0.244229   -3.795033    3.118657
     25          6           0        0.397130    2.225942    1.777482
     26          1           0        1.380818    2.082716    2.226047
     27          6           0        0.381038   -2.266938    1.748236
     28          1           0        1.366974   -2.138675    2.196332
     29          1           0        7.038223   -0.008823    1.683141
     30          8           0        0.375865    0.005114   -2.776223
     31         16           0       -3.860520    0.004016    1.059842
     32         16           0       -6.603366    0.024188   -0.580307
     33          6           0       -2.075582    2.470466    0.623927
     34          6           0       -3.402846    2.494671   -0.052089
     35          6           0       -3.805664    3.623365   -0.772443
     36          6           0       -5.018173    3.635016   -1.458082
     37          6           0       -5.844709    2.515061   -1.438613
     38          6           0       -5.478788    1.395157   -0.687924
     39          6           0       -4.264532    1.383461    0.011527
     40          1           0       -3.145017    4.491919   -0.810928
     41          1           0       -5.313456    4.517046   -2.028913
     42          1           0       -6.782443    2.508496   -1.997706
     43          6           0       -4.276572   -1.361412   -0.002079
     44          6           0       -5.491257   -1.355884   -0.700863
     45          6           0       -5.867731   -2.465501   -1.461522
     46          6           0       -5.051236   -3.592543   -1.491914
     47          6           0       -3.838057   -3.597796   -0.807420
     48          6           0       -3.424598   -2.479400   -0.077030
     49          1           0       -6.805777   -2.445446   -2.019767
     50          1           0       -5.354764   -4.466704   -2.070475
     51          1           0       -3.184995   -4.471650   -0.854600
     52          6           0       -2.096305   -2.473932    0.597295
     53          1           0       -2.537300   -3.974957    2.091479
     54          6           0       -1.100251   -1.617769    0.126889
     55          1           0       -1.308323   -1.018666   -0.758747
     56          1           0       -1.296126    1.028864   -0.751567
     57          6           0        8.492013    0.041216    0.082364
     58          6           0        8.693935    0.061047   -1.298599
     59          1           0        9.706539    0.088185   -1.704983
     60          1           0        9.350359    0.052913    0.757223
     61         35           0        2.897874   -0.031205    2.178625
 ---------------------------------------------------------------------

 The electronic state is 1-A.
 Alpha  occ. eigenvalues -- -482.99868-235.69665 -89.03993 -89.03788 -62.57855
 Alpha  occ. eigenvalues --  -56.38488 -56.38382 -56.38379 -27.46590 -23.52368
 Alpha  occ. eigenvalues --  -23.52245 -23.52096 -19.33639 -19.33636 -19.33299
 Alpha  occ. eigenvalues --  -14.50034 -14.50032 -14.45458 -10.41288 -10.41285
 Alpha  occ. eigenvalues --  -10.40916 -10.36515 -10.36512 -10.35806 -10.35802
 Alpha  occ. eigenvalues --  -10.35628 -10.35625 -10.35558 -10.35554 -10.35169
 Alpha  occ. eigenvalues --  -10.34999 -10.34224 -10.34223 -10.34197 -10.34196
 Alpha  occ. eigenvalues --  -10.34134 -10.34133 -10.32845 -10.32845 -10.32834
 Alpha  occ. eigenvalues --  -10.32737 -10.32736 -10.32576 -10.32484 -10.32483
 Alpha  occ. eigenvalues --  -10.32316 -10.32316 -10.32112 -10.31878 -10.31737
 Alpha  occ. eigenvalues --   -8.74600  -8.09071  -8.08927  -6.56524  -6.56158
 Alpha  occ. eigenvalues --   -6.56139  -6.04535  -6.04387  -6.04141  -6.03992
 Alpha  occ. eigenvalues --   -6.03507  -6.03363  -3.25793  -2.66988  -2.66893
 Alpha  occ. eigenvalues --   -2.66878  -2.66587  -2.66585  -2.11259  -2.10990
 Alpha  occ. eigenvalues --   -2.10762  -1.22602  -1.22546  -1.22125  -1.07875
 Alpha  occ. eigenvalues --   -1.07499  -1.01164  -1.01025  -0.98726  -0.97228
 Alpha  occ. eigenvalues --   -0.94518  -0.93307  -0.92139  -0.91046  -0.89531
 Alpha  occ. eigenvalues --   -0.88126  -0.87532  -0.86463  -0.85844  -0.85265
 Alpha  occ. eigenvalues --   -0.82812  -0.79696  -0.78820  -0.75753  -0.75666
 Alpha  occ. eigenvalues --   -0.74941  -0.74668  -0.74120  -0.72473  -0.71429
 Alpha  occ. eigenvalues --   -0.70301  -0.69812  -0.67370  -0.67036  -0.65190
 Alpha  occ. eigenvalues --   -0.64632  -0.64565  -0.64294  -0.64034  -0.62283
 Alpha  occ. eigenvalues --   -0.61224  -0.60608  -0.59908  -0.58656  -0.58243
 Alpha  occ. eigenvalues --   -0.57779  -0.57549  -0.57003  -0.56963  -0.56743
 Alpha  occ. eigenvalues --   -0.55983  -0.55914  -0.55598  -0.54769  -0.54655
 Alpha  occ. eigenvalues --   -0.54605  -0.53674  -0.53590  -0.53407  -0.53272
 Alpha  occ. eigenvalues --   -0.53007  -0.52567  -0.52280  -0.52037  -0.51947
 Alpha  occ. eigenvalues --   -0.51622  -0.51178  -0.50635  -0.50457  -0.49745
 Alpha  occ. eigenvalues --   -0.49584  -0.49009  -0.48272  -0.48237  -0.47270
 Alpha  occ. eigenvalues --   -0.46957  -0.45336  -0.45194  -0.45016  -0.44692
 Alpha  occ. eigenvalues --   -0.44358  -0.44248  -0.43795  -0.42531  -0.41868
 Alpha  occ. eigenvalues --   -0.40946  -0.40183  -0.39734  -0.39534  -0.38622
 Alpha  occ. eigenvalues --   -0.36881  -0.36701  -0.36137  -0.35535  -0.35094
 Alpha  occ. eigenvalues --   -0.34528  -0.34480  -0.34247  -0.34083  -0.31431
 Alpha  occ. eigenvalues --   -0.31368  -0.30744  -0.30445  -0.30177
 Alpha virt. eigenvalues --    0.00519   0.00687   0.01160   0.01196   0.02008
 Alpha virt. eigenvalues --    0.02902   0.03283   0.03520   0.04126   0.04403
 Alpha virt. eigenvalues --    0.04845   0.04946   0.05541   0.07628   0.07987

 Mulliken charges:
               1
     1  Mn  -0.778811
     2  C    0.360831
     3  O   -0.056740
     4  C    0.361300
     5  O   -0.056807
     6  C    0.312949
     7  N   -0.224202
     8  C   -0.038103
     9  C    0.069218
    10  C    0.164084
    11  H    0.059265
    12  H    0.053359
    13  N   -0.025006
    14  C   -0.055488
    15  C   -0.125533
    16  C    0.022705
    17  C   -0.030109
    18  C    0.017069
    19  H    0.031785
    20  H    0.045449
    21  N   -0.224252
    22  C   -0.038142
    23  C    0.068890
    24  H    0.059258
    25  C    0.112740
    26  H    0.108406
    27  C    0.112824
    28  H    0.108323
    29  H    0.056173
    30  O   -0.077103
    31  S    0.100173
    32  S    0.088198
    33  C   -0.101070
    34  C   -0.009324
    35  C   -0.012231
    36  C   -0.018507
    37  C   -0.005814
    38  C   -0.083090
    39  C   -0.048804
    40  H    0.038852
    41  H    0.051070
    42  H    0.041221
    43  C   -0.049173
    44  C   -0.082994
    45  C   -0.005813
    46  C   -0.018469
    47  C   -0.012417
    48  C   -0.008934
    49  H    0.041239
    50  H    0.051077
    51  H    0.038870
    52  C   -0.100692
    53  H    0.053365
    54  C    0.164529
    55  H    0.043432
    56  H    0.043989
    57  C   -0.006964
    58  C   -0.026359
    59  H    0.049075
    60  H    0.050036
    61  Br  -0.658802
 Sum of Mulliken charges =  -0.00000

 Dipole moment (field-independent basis, Debye):
    X=             -8.1030    Y=              0.1089    Z=              1.1221  Tot=              8.1811
 Quadrupole moment (field-independent basis, Debye-Ang):
   XX=           -234.5174   YY=           -232.7196   ZZ=           -284.2948
   XY=              0.8496   XZ=              7.8208   YZ=              0.0286

 Normal termination of Gaussian 16 at Sat Mar 18 22:36:23 2023.
