 Gaussian 16, Revision A.03,
 Gaussian 16:  ES64L-G16RevA.03 25-Dec-2016

 -----------------------------------------------
 # wB97XD Gen Opt SCRF=(Solvent=TetraHydroFuran)
 -----------------------------------------------

 ----------------------------
 Mn Transition State Reactant
 ----------------------------
 Symbolic Z-matrix:
 Charge =  0 Multiplicity = 1

 SCF Done:  E(RwB97XD) =  -5421.47525255     A.U. after   18 cycles
 SCF Done:  E(RwB97XD) =  -5421.41207157     A.U. after   18 cycles
 SCF Done:  E(RwB97XD) =  -5421.47378460     A.U. after   15 cycles
 SCF Done:  E(RwB97XD) =  -5421.47540713     A.U. after   10 cycles
 SCF Done:  E(RwB97XD) =  -5421.47567785     A.U. after   14 cycles
 SCF Done:  E(RwB97XD) =  -5421.47513293     A.U. after   15 cycles
 SCF Done:  E(RwB97XD) =  -5421.47559122     A.U. after   14 cycles
 SCF Done:  E(RwB97XD) =  -5421.47585017     A.U. after    9 cycles
 SCF Done:  E(RwB97XD) =  -5421.47603423     A.U. after   12 cycles
 SCF Done:  E(RwB97XD) =  -5421.47609239     A.U. after   14 cycles
 SCF Done:  E(RwB97XD) =  -5421.47743591     A.U. after   11 cycles
 SCF Done:  E(RwB97XD) =  -5421.47743591     A.U. after   11 cycles
 SCF Done:  E(RwB97XD) =  -5421.47743585     A.U. after   11 cycles
 SCF Done:  E(RwB97XD) =  -5421.47743403     A.U. after   11 cycles
 SCF Done:  E(RwB97XD) =  -5421.47743705     A.U. after   11 cycles
 SCF Done:  E(RwB97XD) =  -5421.47743716     A.U. after    8 cycles
 SCF Done:  E(RwB97XD) =  -5421.47743712     A.U. after   10 cycles
 SCF Done:  E(RwB97XD) =  -5421.47743763     A.U. after   10 cycles
 SCF Done:  E(RwB97XD) =  -5421.47743771     A.U. after    9 cycles
 SCF Done:  E(RwB97XD) =  -5421.47743780     A.U. after    9 cycles
 Optimization completed.
    -- Stationary point found.

                         Standard orientation:
 ---------------------------------------------------------------------
 Center     Atomic      Atomic             Coordinates (Angstroms)
 Number     Number       Type             X           Y           Z
 ---------------------------------------------------------------------
      1         25           0       -1.019400   -0.132817   -1.300412
      2          6           0       -1.950840    1.095268   -2.298445
      3          8           0       -2.501014    1.875395   -2.922386
      4          6           0       -1.940956   -1.550929   -2.016710
      5          8           0       -2.477721   -2.451758   -2.464673
      6          6           0        0.200253   -0.272355   -2.643101
      7          7           0        0.049270   -1.532208   -0.030825
      8          6           0        0.078659   -3.045560    1.828204
      9          6           0        1.467018   -3.122800    1.779929
     10          6           0        1.376344   -1.676379   -0.115126
     11          1           0       -0.492047   -3.593104    2.578464
     12          1           0        2.018706   -3.716111    2.512123
     13          7           0       -2.370647    0.029418    0.190314
     14          6           0       -3.166973    0.130232    1.019796
     15          6           0       -4.105395    0.265797    2.092088
     16          6           0       -3.620205    0.435658    3.399523
     17          6           0       -4.527044    0.570794    4.443994
     18          6           0       -5.482028    0.230580    1.824860
     19          1           0       -2.545343    0.460706    3.586808
     20          1           0       -5.827746    0.096148    0.794885
     21          7           0        0.050184    1.502447   -0.353685
     22          6           0        0.080733    3.374208    1.143828
     23          6           0        1.470062    3.428053    1.093459
     24          1           0       -0.490022    4.072662    1.756031
     25          6           0       -0.588088   -2.232393    0.922373
     26          1           0       -1.672509   -2.141065    0.961016
     27          6           0       -0.587349    2.394190    0.422982
     28          1           0       -1.673051    2.323362    0.468128
     29          1           0       -4.162872    0.703283    5.464088
     30          8           0        0.941469   -0.361861   -3.511261
     31          6           0        3.710343    0.056923    0.596614
     32          6           0        6.442852    0.001952    0.079864
     33          6           0        2.149927   -2.419317    0.785619
     34          6           0        3.633184   -2.428745    0.672384
     35          6           0        4.332375   -3.609178    0.658083
     36          6           0        5.747213   -3.629432    0.483249
     37          6           0        6.442857   -2.470151    0.288982
     38          6           0        5.767330   -1.207248    0.290513
     39          6           0        4.352065   -1.181325    0.529395
     40          1           0        3.795544   -4.556791    0.744852
     41          1           0        6.266182   -4.589736    0.476907
     42          1           0        7.522310   -2.489257    0.122652
     43          6           0        4.353940    1.255156    0.281407
     44          6           0        5.769448    1.230014    0.043422
     45          6           0        6.447746    2.465552   -0.210612
     46          6           0        5.754363    3.641518   -0.254023
     47          6           0        4.339289    3.659076   -0.081471
     48          6           0        3.637262    2.507017    0.168952
     49          1           0        7.527426    2.448682   -0.375820
     50          1           0        6.275294    4.580082   -0.452211
     51          1           0        3.804373    4.605596   -0.189305
     52          6           0        2.153522    2.526065    0.275197
     53          1           0        2.022288    4.158024    1.688986
     54          6           0        1.379227    1.614958   -0.454266
     55          1           0        1.876825    0.942585   -1.152203
     56          1           0        1.873088   -1.171427   -0.943025
     57          6           0       -5.899550    0.536872    4.185943
     58          6           0       -6.373634    0.367731    2.884354
     59          1           0       -7.447060    0.342144    2.689939
     60          1           0       -6.607062    0.643788    5.010795
     61         35           0       -5.875368   -0.286154   -1.892408
     62          1           0        7.524535   -0.014732   -0.076533
     63          1           0        2.666787    0.088356    0.896347
 ---------------------------------------------------------------------

 The electronic state is 1-A.
 Alpha  occ. eigenvalues -- -482.95237-235.70700 -62.53300 -56.33853 -56.33851
 Alpha  occ. eigenvalues --  -56.33849 -27.47707 -23.53517 -23.53264 -23.53254
 Alpha  occ. eigenvalues --  -19.34885 -19.34596 -19.34575 -14.51011 -14.51002
 Alpha  occ. eigenvalues --  -14.50114 -10.42306 -10.42138 -10.42122 -10.39367
 Alpha  occ. eigenvalues --  -10.37269 -10.37263 -10.36775 -10.36748 -10.36023
 Alpha  occ. eigenvalues --  -10.34854 -10.34835 -10.34722 -10.34708 -10.33937
 Alpha  occ. eigenvalues --  -10.33638 -10.33634 -10.33626 -10.33614 -10.33319
 Alpha  occ. eigenvalues --  -10.33315 -10.33026 -10.32941 -10.32939 -10.32905
 Alpha  occ. eigenvalues --  -10.32583 -10.32416 -10.32408 -10.32263 -10.32186
 Alpha  occ. eigenvalues --  -10.32076 -10.32064 -10.32058 -10.31908 -10.31904
 Alpha  occ. eigenvalues --   -8.70065  -6.51744  -6.51740  -6.51733  -3.26931
 Alpha  occ. eigenvalues --   -2.62252  -2.62251  -2.62246  -2.62242  -2.62241
 Alpha  occ. eigenvalues --   -2.12523  -2.11941  -2.11924  -1.23794  -1.23571
 Alpha  occ. eigenvalues --   -1.23533  -1.08738  -1.08403  -1.05428  -1.00391
 Alpha  occ. eigenvalues --   -0.98360  -0.97730  -0.94630  -0.93447  -0.91481
 Alpha  occ. eigenvalues --   -0.91019  -0.90024  -0.88762  -0.87593  -0.86571
 Alpha  occ. eigenvalues --   -0.85362  -0.85085  -0.81988  -0.76909  -0.76005
 Alpha  occ. eigenvalues --   -0.75646  -0.75581  -0.75415  -0.74505  -0.74435
 Alpha  occ. eigenvalues --   -0.72426  -0.72178  -0.70428  -0.69107  -0.68623
 Alpha  occ. eigenvalues --   -0.66072  -0.65371  -0.65324  -0.65087  -0.64706
 Alpha  occ. eigenvalues --   -0.64625  -0.62814  -0.62329  -0.61259  -0.60394
 Alpha  occ. eigenvalues --   -0.60259  -0.58871  -0.57945  -0.57838  -0.57662
 Alpha  occ. eigenvalues --   -0.57236  -0.57138  -0.56622  -0.56597  -0.56076
 Alpha  occ. eigenvalues --   -0.55914  -0.55518  -0.55174  -0.55064  -0.54684
 Alpha  occ. eigenvalues --   -0.54557  -0.54224  -0.53930  -0.53415  -0.53072
 Alpha  occ. eigenvalues --   -0.52623  -0.52523  -0.52503  -0.52230  -0.51687
 Alpha  occ. eigenvalues --   -0.51383  -0.51299  -0.51035  -0.50847  -0.49440
 Alpha  occ. eigenvalues --   -0.48977  -0.48720  -0.47889  -0.47668  -0.47404
 Alpha  occ. eigenvalues --   -0.46502  -0.46204  -0.44992  -0.44777  -0.43838
 Alpha  occ. eigenvalues --   -0.43543  -0.42566  -0.41812  -0.41289  -0.40829
 Alpha  occ. eigenvalues --   -0.40453  -0.39766  -0.37979  -0.36931  -0.36397
 Alpha  occ. eigenvalues --   -0.35765  -0.33954  -0.33414  -0.32809  -0.32346
 Alpha  occ. eigenvalues --   -0.32299  -0.29553  -0.29514  -0.29486  -0.28109
 Alpha virt. eigenvalues --   -0.03141  -0.00874  -0.00046   0.00043   0.01438
 Alpha virt. eigenvalues --    0.01680   0.02393   0.03337   0.03805   0.04038
 Alpha virt. eigenvalues --    0.04757   0.06253   0.06636   0.07052   0.07825

 Mulliken charges:
               1
     1  Mn  -0.724430
     2  C    0.366122
     3  O   -0.037060
     4  C    0.366160
     5  O   -0.036037
     6  C    0.300810
     7  N   -0.210710
     8  C   -0.036242
     9  C    0.052694
    10  C    0.092363
    11  H    0.064273
    12  H    0.056548
    13  N    0.103771
    14  C    0.002611
    15  C   -0.170301
    16  C    0.023737
    17  C   -0.025551
    18  C    0.042825
    19  H    0.047015
    20  H    0.070308
    21  N   -0.210284
    22  C   -0.036129
    23  C    0.051504
    24  H    0.064201
    25  C    0.109438
    26  H    0.076164
    27  C    0.109303
    28  H    0.075234
    29  H    0.052808
    30  O   -0.053091
    31  C   -0.182157
    32  C   -0.080348
    33  C   -0.056989
    34  C    0.057665
    35  C   -0.058328
    36  C   -0.018962
    37  C   -0.017634
    38  C    0.018024
    39  C    0.080845
    40  H    0.035394
    41  H    0.044048
    42  H    0.032015
    43  C    0.080834
    44  C    0.018058
    45  C   -0.017607
    46  C   -0.018822
    47  C   -0.058941
    48  C    0.058837
    49  H    0.032046
    50  H    0.044001
    51  H    0.035371
    52  C   -0.055984
    53  H    0.056636
    54  C    0.093400
    55  H    0.057378
    56  H    0.058098
    57  C   -0.000076
    58  C   -0.020510
    59  H    0.055220
    60  H    0.056283
    61  Br  -0.989300
    62  H    0.020932
    63  H    0.052516
 Sum of Mulliken charges =  -0.00000

 Dipole moment (field-independent basis, Debye):
    X=             24.2374    Y=              2.2670    Z=             16.8628  Tot=             29.6132
 Quadrupole moment (field-independent basis, Debye-Ang):
   XX=           -335.6016   YY=           -221.4202   ZZ=           -260.6388
   XY=            -11.0009   XZ=            -77.2658   YZ=             -4.3379

 Normal termination of Gaussian 16 at Sat Dec 31 05:11:49 2022.
