 Gaussian 16, Revision A.03,
 Gaussian 16:  ES64L-G16RevA.03 25-Dec-2016

 -----------------------------------------------
 # wB97XD Gen SCRF=(Solvent=TetraHydroFuran) Opt
 -----------------------------------------------

 --------------------------
 Anth Reactant Optimization
 --------------------------
 Symbolic Z-matrix:
 Charge =  0 Multiplicity = 1

 SCF Done:  E(RwB97XD) =  -5421.09645411     A.U. after   20 cycles
 SCF Done:  E(RwB97XD) =  -5421.18075013     A.U. after   15 cycles
 SCF Done:  E(RwB97XD) =  -5421.31370473     A.U. after   16 cycles
 SCF Done:  E(RwB97XD) =  -5421.38334435     A.U. after   17 cycles
 SCF Done:  E(RwB97XD) =  -5421.44086250     A.U. after   16 cycles
 SCF Done:  E(RwB97XD) =  -5421.46773337     A.U. after   16 cycles
 SCF Done:  E(RwB97XD) =  -5421.47370890     A.U. after   15 cycles
 SCF Done:  E(RwB97XD) =  -5421.47516299     A.U. after   16 cycles
 SCF Done:  E(RwB97XD) =  -5421.47198138     A.U. after   17 cycles
 SCF Done:  E(RwB97XD) =  -5421.47570762     A.U. after   15 cycles
 SCF Done:  E(RwB97XD) =  -5421.47876725     A.U. after   12 cycles
 SCF Done:  E(RwB97XD) =  -5421.47875031     A.U. after   12 cycles
 SCF Done:  E(RwB97XD) =  -5421.47877937     A.U. after   13 cycles
 SCF Done:  E(RwB97XD) =  -5421.47878277     A.U. after   11 cycles
 SCF Done:  E(RwB97XD) =  -5421.47878713     A.U. after   11 cycles
 SCF Done:  E(RwB97XD) =  -5421.47878875     A.U. after   11 cycles
 SCF Done:  E(RwB97XD) =  -5421.47878844     A.U. after   10 cycles
 SCF Done:  E(RwB97XD) =  -5421.47878907     A.U. after   11 cycles
 SCF Done:  E(RwB97XD) =  -5421.47878816     A.U. after   11 cycles
 SCF Done:  E(RwB97XD) =  -5421.47878843     A.U. after    7 cycles
 Optimization completed.
    -- Stationary point found.

                         Standard orientation:
 ---------------------------------------------------------------------
 Center     Atomic      Atomic             Coordinates (Angstroms)
 Number     Number       Type             X           Y           Z
 ---------------------------------------------------------------------
      1         25           0       -0.897291   -0.433054    1.755808
      2          6           0       -1.490904   -1.826340    2.781413
      3          8           0       -1.856284   -2.699344    3.420818
      4          6           0       -1.899035    0.786545    2.694598
      5          8           0       -2.506428    1.545409    3.290522
      6          6           0        0.479079   -0.173765    2.918098
      7          7           0       -0.238305    1.163548    0.457992
      8          6           0       -0.709872    2.764719   -1.259784
      9          6           0        0.644632    3.032039   -1.423622
     10          6           0        1.055413    1.488420    0.347684
     11          1           0       -1.466963    3.268767   -1.861222
     12          1           0        0.987496    3.736385   -2.184667
     13          7           0       -2.427721   -0.722087    0.469265
     14          6           0       -3.323522   -0.906360   -0.234634
     15          6           0       -4.395314   -1.189260   -1.138977
     16          6           0       -4.116774   -1.304390   -2.509068
     17          6           0       -5.154854   -1.588823   -3.389401
     18          6           0       -5.698301   -1.356457   -0.648666
     19          1           0       -3.097849   -1.165825   -2.873773
     20          1           0       -5.898426   -1.252211    0.418179
     21          7           0        0.235598   -1.842931    0.550335
     22          6           0        0.300663   -3.606664   -1.072609
     23          6           0        1.678049   -3.467220   -1.211437
     24          1           0       -0.253947   -4.343154   -1.654352
     25          6           0       -1.111998    1.818379   -0.325602
     26          1           0       -2.175710    1.604885   -0.197473
     27          6           0       -0.381675   -2.771163   -0.199587
     28          1           0       -1.462919   -2.849450   -0.097954
     29          1           0       -4.950178   -1.676385   -4.457580
     30          8           0        1.320642   -0.011466    3.676999
     31          6           0        3.474186    0.156103   -0.803863
     32          6           0        6.217618    0.594879   -0.671357
     33          6           0        1.567854    2.380607   -0.600929
     34          6           0        3.035222    2.603250   -0.707689
     35          6           0        3.556495    3.872575   -0.719430
     36          6           0        4.964419    4.095500   -0.748462
     37          6           0        5.838089    3.045842   -0.726815
     38          6           0        5.354426    1.697899   -0.710556
     39          6           0        3.937023    1.472304   -0.748701
     40          1           0        2.885173    4.732884   -0.667027
     41          1           0        5.337754    5.121280   -0.756910
     42          1           0        6.916687    3.218415   -0.714292
     43          6           0        4.320080   -0.944921   -0.657003
     44          6           0        5.737228   -0.720057   -0.616495
     45          6           0        6.612156   -1.851091   -0.534812
     46          6           0        6.105079   -3.117641   -0.467663
     47          6           0        4.696570   -3.337737   -0.444155
     48          6           0        3.811149   -2.292707   -0.524345
     49          1           0        7.691233   -1.681552   -0.520284
     50          1           0        6.776395   -3.975842   -0.401180
     51          1           0        4.321459   -4.356683   -0.322526
     52          6           0        2.344631   -2.523015   -0.428187
     53          1           0        2.231462   -4.077892   -1.927815
     54          6           0        1.568336   -1.771660    0.463490
     55          1           0        2.067981   -1.073474    1.134021
     56          1           0        1.741623    1.016448    1.050262
     57          6           0       -6.453770   -1.756340   -2.906764
     58          6           0       -6.724383   -1.641632   -1.541988
     59          1           0       -7.742901   -1.768762   -1.172115
     60          1           0       -7.265650   -1.976282   -3.602833
     61         35           0       -4.788544    2.478258   -0.065929
     62          1           0        7.297211    0.766041   -0.667209
     63          1           0        2.412965   -0.017696   -0.956882
 ---------------------------------------------------------------------

 The electronic state is 1-A.
 Alpha  occ. eigenvalues -- -482.95256-235.70827 -62.53317 -56.33870 -56.33867
 Alpha  occ. eigenvalues --  -56.33865 -27.47864 -23.53666 -23.53418 -23.53411
 Alpha  occ. eigenvalues --  -19.34983 -19.34874 -19.34707 -14.51035 -14.50376
 Alpha  occ. eigenvalues --  -14.49969 -10.42412 -10.42407 -10.42243 -10.39281
 Alpha  occ. eigenvalues --  -10.37275 -10.36818 -10.36707 -10.35952 -10.35531
 Alpha  occ. eigenvalues --  -10.34843 -10.34729 -10.34263 -10.34083 -10.33732
 Alpha  occ. eigenvalues --  -10.33668 -10.33579 -10.33546 -10.33379 -10.33199
 Alpha  occ. eigenvalues --  -10.33134 -10.32838 -10.32795 -10.32786 -10.32697
 Alpha  occ. eigenvalues --  -10.32443 -10.32369 -10.32328 -10.32143 -10.32059
 Alpha  occ. eigenvalues --  -10.32007 -10.31927 -10.31867 -10.31856 -10.31731
 Alpha  occ. eigenvalues --   -8.70081  -6.51764  -6.51755  -6.51746  -3.27070
 Alpha  occ. eigenvalues --   -2.62271  -2.62270  -2.62263  -2.62256  -2.62254
 Alpha  occ. eigenvalues --   -2.12639  -2.12092  -2.12069  -1.23920  -1.23823
 Alpha  occ. eigenvalues --   -1.23681  -1.08632  -1.07806  -1.05301  -1.00245
 Alpha  occ. eigenvalues --   -0.98334  -0.97557  -0.94413  -0.93143  -0.91316
 Alpha  occ. eigenvalues --   -0.90804  -0.89612  -0.88689  -0.87327  -0.86613
 Alpha  occ. eigenvalues --   -0.85165  -0.84896  -0.81814  -0.76722  -0.75742
 Alpha  occ. eigenvalues --   -0.75521  -0.75404  -0.74981  -0.74441  -0.74232
 Alpha  occ. eigenvalues --   -0.72237  -0.72233  -0.70286  -0.68902  -0.68700
 Alpha  occ. eigenvalues --   -0.66150  -0.65607  -0.65424  -0.64991  -0.64500
 Alpha  occ. eigenvalues --   -0.64278  -0.62626  -0.62047  -0.60998  -0.60294
 Alpha  occ. eigenvalues --   -0.59964  -0.58964  -0.57942  -0.57701  -0.57563
 Alpha  occ. eigenvalues --   -0.57266  -0.57163  -0.56842  -0.56480  -0.55910
 Alpha  occ. eigenvalues --   -0.55751  -0.55609  -0.55136  -0.54995  -0.54708
 Alpha  occ. eigenvalues --   -0.54498  -0.54187  -0.53721  -0.53302  -0.53195
 Alpha  occ. eigenvalues --   -0.52536  -0.52407  -0.52280  -0.52080  -0.51409
 Alpha  occ. eigenvalues --   -0.51322  -0.51138  -0.51027  -0.50759  -0.49311
 Alpha  occ. eigenvalues --   -0.48874  -0.48256  -0.47810  -0.47499  -0.47242
 Alpha  occ. eigenvalues --   -0.46306  -0.46185  -0.44816  -0.44801  -0.43682
 Alpha  occ. eigenvalues --   -0.43346  -0.42398  -0.41571  -0.41016  -0.40683
 Alpha  occ. eigenvalues --   -0.40161  -0.39543  -0.37708  -0.36577  -0.36305
 Alpha  occ. eigenvalues --   -0.35755  -0.33732  -0.33282  -0.32934  -0.32439
 Alpha  occ. eigenvalues --   -0.32381  -0.29600  -0.29504  -0.29416  -0.27952
 Alpha virt. eigenvalues --   -0.02985  -0.00713   0.00040   0.00470   0.01621
 Alpha virt. eigenvalues --    0.02083   0.02530   0.03276   0.03872   0.03968
 Alpha virt. eigenvalues --    0.04610   0.06305   0.06437   0.07075   0.07829

 Mulliken charges:
               1
     1  Mn  -0.725458
     2  C    0.361535
     3  O   -0.050950
     4  C    0.369238
     5  O   -0.036668
     6  C    0.300757
     7  N   -0.209393
     8  C   -0.040062
     9  C    0.051703
    10  C    0.085924
    11  H    0.073164
    12  H    0.053149
    13  N    0.115013
    14  C   -0.011386
    15  C   -0.149406
    16  C    0.034367
    17  C   -0.023827
    18  C    0.054291
    19  H    0.048725
    20  H    0.060336
    21  N   -0.207656
    22  C   -0.035858
    23  C    0.053617
    24  H    0.063295
    25  C    0.106546
    26  H    0.092060
    27  C    0.110543
    28  H    0.068720
    29  H    0.053065
    30  O   -0.052664
    31  C   -0.182194
    32  C   -0.081605
    33  C   -0.056103
    34  C    0.059460
    35  C   -0.059697
    36  C   -0.018195
    37  C   -0.019741
    38  C    0.019126
    39  C    0.079340
    40  H    0.036093
    41  H    0.043609
    42  H    0.030990
    43  C    0.079520
    44  C    0.018243
    45  C   -0.017850
    46  C   -0.019662
    47  C   -0.059311
    48  C    0.058258
    49  H    0.031675
    50  H    0.043329
    51  H    0.033961
    52  C   -0.058497
    53  H    0.056670
    54  C    0.089703
    55  H    0.056624
    56  H    0.051105
    57  C   -0.000546
    58  C   -0.025002
    59  H    0.055025
    60  H    0.056099
    61  Br  -0.987496
    62  H    0.020223
    63  H    0.054125
 Sum of Mulliken charges =  -0.00000

 Dipole moment (field-independent basis, Debye):
    X=             17.1247    Y=            -13.9489    Z=             -6.1339  Tot=             22.9228
 Quadrupole moment (field-independent basis, Debye-Ang):
   XX=           -275.8339   YY=           -248.3666   ZZ=           -254.8480
   XY=             66.3048   XZ=             12.9585   YZ=              5.8793

 Normal termination of Gaussian 16 at Thu Dec 22 00:27:06 2022.
