 Gaussian 16, Revision A.03,
 Gaussian 16:  ES64L-G16RevA.03 25-Dec-2016

 -------------------------------------------------------
 # wB97XD Gen SCRF=(Solvent=TetraHydroFuran) Opt=Restart
 -------------------------------------------------------

 SCF Done:  E(RwB97XD) =  -6140.26527714     A.U. after   10 cycles
 SCF Done:  E(RwB97XD) =  -6140.26527724     A.U. after   10 cycles
 SCF Done:  E(RwB97XD) =  -6140.26527722     A.U. after    9 cycles
 SCF Done:  E(RwB97XD) =  -6140.26527717     A.U. after    7 cycles
 Optimization completed.
    -- Stationary point found.

                         Standard orientation:
 ---------------------------------------------------------------------
 Center     Atomic      Atomic             Coordinates (Angstroms)
 Number     Number       Type             X           Y           Z
 ---------------------------------------------------------------------
      1         25           0       -2.075002   -1.587426   -1.061713
      2          6           0       -3.084354   -1.320609   -2.552516
      3          8           0       -3.717502   -1.145175   -3.488792
      4          6           0       -2.846615   -3.202340   -0.727886
      5          8           0       -3.328744   -4.215830   -0.507243
      6          6           0       -0.814351   -2.379926   -2.060831
      7          7           0       -0.922940   -1.751744    0.763215
      8          6           0       -0.742304   -1.738933    3.154136
      9          6           0        0.646564   -1.814164    3.080937
     10          6           0        0.406943   -1.871443    0.706317
     11          1           0       -1.255283   -1.693870    4.115010
     12          1           0        1.257877   -1.817309    3.985713
     13          7           0       -5.233722    3.233008    1.575039
     14          6           0       -4.080260    3.203861    1.671959
     15          6           0       -2.646038    3.172462    1.783995
     16          6           0       -1.913945    4.364815    1.691586
     17          6           0       -0.525540    4.323196    1.775086
     18          6           0       -1.990406    1.946204    1.963815
     19          1           0       -2.433568    5.313968    1.550633
     20          1           0       -2.573485    1.025057    2.007600
     21          7           0       -1.189347    0.369406   -1.291633
     22          6           0       -1.352491    2.756115   -1.430187
     23          6           0        0.026212    2.872698   -1.573512
     24          1           0       -1.994588    3.636750   -1.413183
     25          6           0       -1.486062   -1.697570    1.981733
     26          1           0       -2.572766   -1.604717    2.004449
     27          6           0       -1.918175    1.497089   -1.277670
     28          1           0       -2.991359    1.375736   -1.123912
     29          1           0        0.049267    5.248074    1.701372
     30          8           0       -0.054698   -2.918495   -2.735745
     31         16           0        2.534223    0.704933    0.788537
     32         16           0        5.658155    0.502435    0.162130
     33          6           0        1.244125   -1.874196    1.822723
     34          6           0        2.719051   -1.922936    1.613513
     35          6           0        3.446831   -3.068855    1.947585
     36          6           0        4.814974   -3.140804    1.693687
     37          6           0        5.476305   -2.069919    1.098460
     38          6           0        4.773638   -0.900175    0.799241
     39          6           0        3.399542   -0.822474    1.059421
     40          1           0        2.925329   -3.919564    2.390939
     41          1           0        5.368761   -4.046854    1.945465
     42          1           0        6.542945   -2.133052    0.874303
     43          6           0        3.151909    1.186169   -0.807138
     44          6           0        4.528449    1.119031   -1.063223
     45          6           0        5.041221    1.594046   -2.272570
     46          6           0        4.185209    2.171584   -3.205827
     47          6           0        2.815446    2.226000   -2.960617
     48          6           0        2.275715    1.713242   -1.775707
     49          1           0        6.111757    1.519453   -2.473394
     50          1           0        4.587319    2.561778   -4.142334
     51          1           0        2.142209    2.647076   -3.710185
     52          6           0        0.797760    1.710446   -1.586460
     53          1           0        0.498577    3.852541   -1.670436
     54          6           0        0.130242    0.491780   -1.465606
     55          1           0        0.713145   -0.425239   -1.530647
     56          1           0        0.860272   -1.975093   -0.278797
     57          6           0        0.128709    3.103099    1.949443
     58          6           0       -0.602624    1.919000    2.044456
     59          1           0       -0.087118    0.965218    2.169099
     60          1           0        1.218836    3.073108    2.007916
     61         35           0       -4.153588   -0.606655    0.199440
 ---------------------------------------------------------------------

 The electronic state is 1-A.
 Alpha  occ. eigenvalues -- -482.99676-235.69706 -89.04340 -89.03995 -62.57662
 Alpha  occ. eigenvalues --  -56.38298 -56.38190 -56.38182 -27.46640 -23.52425
 Alpha  occ. eigenvalues --  -23.52269 -23.52162 -19.33664 -19.33659 -19.33422
 Alpha  occ. eigenvalues --  -14.50342 -14.49938 -14.45336 -10.41344 -10.41340
 Alpha  occ. eigenvalues --  -10.41019 -10.36855 -10.36451 -10.36034 -10.36003
 Alpha  occ. eigenvalues --  -10.35956 -10.35765 -10.35760 -10.35640 -10.35057
 Alpha  occ. eigenvalues --  -10.35023 -10.34579 -10.34510 -10.34462 -10.34437
 Alpha  occ. eigenvalues --  -10.34200 -10.34130 -10.33226 -10.33004 -10.32928
 Alpha  occ. eigenvalues --  -10.32886 -10.32762 -10.32691 -10.32638 -10.32618
 Alpha  occ. eigenvalues --  -10.32503 -10.32468 -10.32312 -10.32084 -10.31916
 Alpha  occ. eigenvalues --   -8.74409  -8.09374  -8.09131  -6.56341  -6.55967
 Alpha  occ. eigenvalues --   -6.55938  -6.04839  -6.04593  -6.04447  -6.04195
 Alpha  occ. eigenvalues --   -6.03817  -6.03567  -3.25843  -2.66804  -2.66709
 Alpha  occ. eigenvalues --   -2.66686  -2.66389  -2.66387  -2.11329  -2.10978
 Alpha  occ. eigenvalues --   -2.10855  -1.22648  -1.22582  -1.22232  -1.08102
 Alpha  occ. eigenvalues --   -1.07559  -1.01378  -1.00887  -0.98916  -0.97365
 Alpha  occ. eigenvalues --   -0.94697  -0.93466  -0.92357  -0.91235  -0.89690
 Alpha  occ. eigenvalues --   -0.88305  -0.87655  -0.86664  -0.86021  -0.85443
 Alpha  occ. eigenvalues --   -0.83008  -0.79548  -0.79011  -0.75994  -0.75747
 Alpha  occ. eigenvalues --   -0.75176  -0.74799  -0.74208  -0.72619  -0.71614
 Alpha  occ. eigenvalues --   -0.70491  -0.69985  -0.67509  -0.67198  -0.65353
 Alpha  occ. eigenvalues --   -0.64773  -0.64663  -0.64396  -0.64193  -0.62434
 Alpha  occ. eigenvalues --   -0.61434  -0.60794  -0.60053  -0.58723  -0.58386
 Alpha  occ. eigenvalues --   -0.57929  -0.57668  -0.57213  -0.57077  -0.56826
 Alpha  occ. eigenvalues --   -0.56072  -0.55915  -0.55630  -0.54906  -0.54770
 Alpha  occ. eigenvalues --   -0.54571  -0.54181  -0.53759  -0.53664  -0.53405
 Alpha  occ. eigenvalues --   -0.53183  -0.52775  -0.52552  -0.52224  -0.52042
 Alpha  occ. eigenvalues --   -0.51731  -0.51318  -0.50638  -0.50607  -0.49815
 Alpha  occ. eigenvalues --   -0.49552  -0.49164  -0.48474  -0.48350  -0.47476
 Alpha  occ. eigenvalues --   -0.46959  -0.45484  -0.45363  -0.45167  -0.44808
 Alpha  occ. eigenvalues --   -0.44532  -0.44359  -0.43889  -0.42568  -0.42020
 Alpha  occ. eigenvalues --   -0.41004  -0.40342  -0.40008  -0.39724  -0.38818
 Alpha  occ. eigenvalues --   -0.37128  -0.36905  -0.35984  -0.35761  -0.35337
 Alpha  occ. eigenvalues --   -0.34861  -0.34334  -0.34061  -0.33923  -0.31521
 Alpha  occ. eigenvalues --   -0.31393  -0.30630  -0.30384  -0.30333
 Alpha virt. eigenvalues --    0.00206   0.00481   0.00894   0.01039   0.01781
 Alpha virt. eigenvalues --    0.02591   0.03111   0.03658   0.03949   0.04161
 Alpha virt. eigenvalues --    0.04813   0.04930   0.05450   0.07591   0.07956

 Mulliken charges:
               1
     1  Mn  -0.767575
     2  C    0.375058
     3  O   -0.062742
     4  C    0.374220
     5  O   -0.063280
     6  C    0.302997
     7  N   -0.212738
     8  C   -0.040016
     9  C    0.072240
    10  C    0.145528
    11  H    0.061172
    12  H    0.055816
    13  N   -0.027514
    14  C   -0.029162
    15  C   -0.174922
    16  C    0.019530
    17  C   -0.029972
    18  C    0.063129
    19  H    0.043617
    20  H    0.053184
    21  N   -0.218831
    22  C   -0.026598
    23  C    0.063454
    24  H    0.055974
    25  C    0.095615
    26  H    0.110069
    27  C    0.113150
    28  H    0.104576
    29  H    0.046827
    30  O   -0.081548
    31  S    0.082959
    32  S    0.090045
    33  C   -0.103998
    34  C   -0.008817
    35  C   -0.010680
    36  C   -0.018427
    37  C   -0.006694
    38  C   -0.080083
    39  C   -0.042520
    40  H    0.039358
    41  H    0.052157
    42  H    0.042333
    43  C   -0.050830
    44  C   -0.083752
    45  C   -0.006780
    46  C   -0.017422
    47  C   -0.017745
    48  C    0.004611
    49  H    0.042194
    50  H    0.051676
    51  H    0.039702
    52  C   -0.088766
    53  H    0.049067
    54  C    0.161810
    55  H    0.030424
    56  H    0.053308
    57  C    0.007095
    58  C   -0.019019
    59  H    0.015736
    60  H    0.039482
    61  Br  -0.667681
 Sum of Mulliken charges =  -0.00000

 Dipole moment (field-independent basis, Debye):
    X=             17.1008    Y=              1.9965    Z=              0.9993  Tot=             17.2459
 Quadrupole moment (field-independent basis, Debye-Ang):
   XX=           -332.3872   YY=           -251.8911   ZZ=           -257.3315
   XY=             -3.2181   XZ=              0.4495   YZ=            -27.9521

 Normal termination of Gaussian 16 at Tue Mar 21 16:06:22 2023.
