 Gaussian 16, Revision A.03,
 Gaussian 16:  ES64L-G16RevA.03 25-Dec-2016

 ---------------------------------------------------------------
 # wB97XD Gen SCRF=(Solvent=TetraHydroFuran) Freq(Numer,Restart)
 ---------------------------------------------------------------

 SCF Done:  E(RwB97XD) =  -5421.44460094     A.U. after    6 cycles
 SCF Done:  E(RwB97XD) =  -5421.44460097     A.U. after    6 cycles
 SCF Done:  E(RwB97XD) =  -5421.44460091     A.U. after    6 cycles
 SCF Done:  E(RwB97XD) =  -5421.44460087     A.U. after    5 cycles

 Alpha  occ. eigenvalues -- -482.95450-235.70868 -62.53491 -56.34054 -56.34042
 Alpha  occ. eigenvalues --  -56.34037 -27.47536 -23.53468 -23.53109 -23.53047
 Alpha  occ. eigenvalues --  -19.34579 -19.34549 -19.34480 -14.50816 -14.50809
 Alpha  occ. eigenvalues --  -14.46642 -10.42153 -10.42149 -10.42107 -10.37155
 Alpha  occ. eigenvalues --  -10.37146 -10.36612 -10.36597 -10.36290 -10.35591
 Alpha  occ. eigenvalues --  -10.34658 -10.34641 -10.34560 -10.34550 -10.33579
 Alpha  occ. eigenvalues --  -10.33563 -10.33446 -10.33343 -10.33329 -10.33278
 Alpha  occ. eigenvalues --  -10.33274 -10.33252 -10.32880 -10.32874 -10.32638
 Alpha  occ. eigenvalues --  -10.32390 -10.32331 -10.32322 -10.32278 -10.32115
 Alpha  occ. eigenvalues --  -10.32032 -10.32002 -10.31996 -10.31849 -10.31845
 Alpha  occ. eigenvalues --   -8.70244  -6.51946  -6.51911  -6.51893  -3.26992
 Alpha  occ. eigenvalues --   -2.62450  -2.62444  -2.62430  -2.62402  -2.62400
 Alpha  occ. eigenvalues --   -2.12858  -2.11933  -2.11838  -1.23595  -1.23522
 Alpha  occ. eigenvalues --   -1.23338  -1.08601  -1.08292  -1.02155  -1.00303
 Alpha  occ. eigenvalues --   -0.97878  -0.97631  -0.94480  -0.93281  -0.91392
 Alpha  occ. eigenvalues --   -0.90866  -0.89860  -0.88166  -0.87492  -0.86416
 Alpha  occ. eigenvalues --   -0.85280  -0.85010  -0.81928  -0.76800  -0.75890
 Alpha  occ. eigenvalues --   -0.75417  -0.75397  -0.74764  -0.74595  -0.74404
 Alpha  occ. eigenvalues --   -0.72311  -0.72001  -0.70290  -0.69012  -0.68211
 Alpha  occ. eigenvalues --   -0.65748  -0.65265  -0.65173  -0.64939  -0.64543
 Alpha  occ. eigenvalues --   -0.64525  -0.62674  -0.62128  -0.61074  -0.60185
 Alpha  occ. eigenvalues --   -0.59149  -0.58430  -0.57661  -0.57535  -0.57259
 Alpha  occ. eigenvalues --   -0.56934  -0.56634  -0.56504  -0.56108  -0.55969
 Alpha  occ. eigenvalues --   -0.55729  -0.55289  -0.54924  -0.54846  -0.54461
 Alpha  occ. eigenvalues --   -0.54383  -0.54049  -0.53365  -0.52994  -0.52542
 Alpha  occ. eigenvalues --   -0.52477  -0.52468  -0.51995  -0.51303  -0.51259
 Alpha  occ. eigenvalues --   -0.51137  -0.51126  -0.50557  -0.49464  -0.49101
 Alpha  occ. eigenvalues --   -0.48548  -0.47988  -0.47408  -0.47317  -0.46044
 Alpha  occ. eigenvalues --   -0.45766  -0.45145  -0.44922  -0.43754  -0.43718
 Alpha  occ. eigenvalues --   -0.43386  -0.42442  -0.41857  -0.41242  -0.40727
 Alpha  occ. eigenvalues --   -0.40365  -0.39660  -0.37837  -0.36581  -0.35653
 Alpha  occ. eigenvalues --   -0.35161  -0.33664  -0.33579  -0.33351  -0.33256
 Alpha  occ. eigenvalues --   -0.32218  -0.29676  -0.29549  -0.29260  -0.28006
 Alpha virt. eigenvalues --   -0.03076  -0.00631  -0.00228   0.00665   0.00885
 Alpha virt. eigenvalues --    0.01822   0.01972   0.02429   0.03948   0.04362
 Alpha virt. eigenvalues --    0.04411   0.06215   0.06763   0.06933   0.08994

 Dipole moment (field-independent basis, Debye):
    X=             19.7657    Y=             14.4254    Z=              0.2453  Tot=             24.4711
 Quadrupole moment (field-independent basis, Debye-Ang):
   XX=           -308.1996   YY=           -250.2935   ZZ=           -219.8937
   XY=            -55.8834   XZ=             -1.6742   YZ=             -1.4353

 ******    1 imaginary frequencies (negative Signs) ******

                      1                      2                      3
                      A                      A                      A
 Frequencies --    -67.7858                 1.0156                10.8062
 Red. masses --      9.9485                 6.6115                 6.4999
 Frc consts  --      0.0269                 0.0000                 0.0004
 IR Inten    --      8.1632                 1.2765                 1.1317

                      4                      5                      6
                      A                      A                      A
 Frequencies --     17.1251                32.1921                34.3946
 Red. masses --      3.7161                13.5867                11.0946
 Frc consts  --      0.0006                 0.0083                 0.0077
 IR Inten    --      0.0568                 8.9943                 3.7151

                      7                      8                      9
                      A                      A                      A
 Frequencies --     40.3148                48.2041                62.3861
 Red. masses --     14.1637                 7.2026                12.6323
 Frc consts  --      0.0136                 0.0099                 0.0290
 IR Inten    --     19.8676                 2.2296                 5.2095

                     10                     11                     12
                      A                      A                      A
 Frequencies --     70.2994                72.3627                75.9117
 Red. masses --     12.0097                 6.7423                 8.9798
 Frc consts  --      0.0350                 0.0208                 0.0305
 IR Inten    --      2.3460                 0.4785                 0.4810

                     13                     14                     15
                      A                      A                      A
 Frequencies --     81.3588                96.9943                98.7563
 Red. masses --      6.5765                 6.5058                10.1519
 Frc consts  --      0.0256                 0.0361                 0.0583
 IR Inten    --      0.9257                 0.0210                 4.7364

                     16                     17                     18
                      A                      A                      A
 Frequencies --    100.9065               103.4456               106.1701
 Red. masses --      4.9896                 9.1228                 9.9185
 Frc consts  --      0.0299                 0.0575                 0.0659
 IR Inten    --      1.6277                 0.7130                 1.0639

                     19                     20                     21
                      A                      A                      A
 Frequencies --    116.2346               118.4013               157.7476
 Red. masses --      6.4811                 9.9709                 5.9623
 Frc consts  --      0.0516                 0.0824                 0.0874
 IR Inten    --      2.0803                 1.6209                 0.1340

                     22                     23                     24
                      A                      A                      A
 Frequencies --    168.8513               173.7236               188.9980
 Red. masses --     10.5609                 6.0534                 6.8877
 Frc consts  --      0.1774                 0.1076                 0.1450
 IR Inten    --      5.9407                 3.8529                 9.2047

                     25                     26                     27
                      A                      A                      A
 Frequencies --    197.1815               199.0197               214.3427
 Red. masses --      7.0022                 7.9219                 7.2069
 Frc consts  --      0.1604                 0.1849                 0.1951
 IR Inten    --      5.1692                 4.8354                 3.6157

                     28                     29                     30
                      A                      A                      A
 Frequencies --    219.2163               232.5036               240.7780
 Red. masses --      6.5232                 5.2303                 5.3076
 Frc consts  --      0.1847                 0.1666                 0.1813
 IR Inten    --      5.0867                 0.3743                 0.9681

                     31                     32                     33
                      A                      A                      A
 Frequencies --    262.0734               280.2906               309.9945
 Red. masses --      5.3239                 4.6073                 4.0112
 Frc consts  --      0.2154                 0.2133                 0.2271
 IR Inten    --      0.1016                 0.6109                 0.7913

                     34                     35                     36
                      A                      A                      A
 Frequencies --    320.1773               328.6762               346.4398
 Red. masses --      4.6136                 6.6893                 4.9782
 Frc consts  --      0.2787                 0.4258                 0.3520
 IR Inten    --      1.2273                 0.2203                 4.5209

                     37                     38                     39
                      A                      A                      A
 Frequencies --    372.8693               407.0441               415.3821
 Red. masses --      5.6792                 4.5723                 2.8429
 Frc consts  --      0.4652                 0.4463                 0.2890
 IR Inten    --      0.0320                 1.5959                 0.0036

                     40                     41                     42
                      A                      A                      A
 Frequencies --    427.9592               428.3573               435.5622
 Red. masses --      5.8808                 4.1665                 9.7061
 Frc consts  --      0.6346                 0.4504                 1.0849
 IR Inten    --      0.9324                 2.5697                 9.2937

                     43                     44                     45
                      A                      A                      A
 Frequencies --    436.8812               443.7324               456.2706
 Red. masses --      5.8446                10.0920                 6.1038
 Frc consts  --      0.6573                 1.1708                 0.7487
 IR Inten    --     19.0257                 0.8487                15.9735

                     46                     47                     48
                      A                      A                      A
 Frequencies --    467.8763               469.4403               471.0846
 Red. masses --      5.1457                 6.6141                 7.8809
 Frc consts  --      0.6637                 0.8588                 1.0304
 IR Inten    --      0.3081                 2.4630                 0.6328

                     49                     50                     51
                      A                      A                      A
 Frequencies --    478.2024               508.1886               517.2476
 Red. masses --      3.8141                 9.0378                15.3512
 Frc consts  --      0.5139                 1.3752                 2.4199
 IR Inten    --      6.7292                12.7476                12.0894

                     52                     53                     54
                      A                      A                      A
 Frequencies --    519.5293               553.9990               563.5956
 Red. masses --      3.4618                 6.6075                 3.9320
 Frc consts  --      0.5505                 1.1948                 0.7359
 IR Inten    --      1.2017                 0.1703                 9.2634

                     55                     56                     57
                      A                      A                      A
 Frequencies --    578.9096               579.0852               587.3319
 Red. masses --      5.1315                 7.1401                 3.8355
 Frc consts  --      1.0133                 1.4107                 0.7795
 IR Inten    --      0.7146                 1.7204                 0.8119

                     58                     59                     60
                      A                      A                      A
 Frequencies --    590.5178               622.0782               626.2921
 Red. masses --      4.1639                13.8920                11.9592
 Frc consts  --      0.8555                 3.1674                 2.7638
 IR Inten    --     24.5636               100.4632                 8.6695

                     61                     62                     63
                      A                      A                      A
 Frequencies --    634.5977               640.3230               640.9390
 Red. masses --      6.8881                 6.8617                 5.3021
 Frc consts  --      1.6343                 1.6576                 1.2833
 IR Inten    --     36.4098                 0.5213                 0.0220

                     64                     65                     66
                      A                      A                      A
 Frequencies --    648.7205               655.1058               669.6117
 Red. masses --      5.5027                 5.1593                 7.1544
 Frc consts  --      1.3644                 1.3046                 1.8900
 IR Inten    --      7.8880                 2.1744                 0.8567

                     67                     68                     69
                      A                      A                      A
 Frequencies --    671.1091               678.3156               695.2480
 Red. masses --      6.2699                 6.3643                13.3342
 Frc consts  --      1.6638                 1.7253                 3.7975
 IR Inten    --     14.0982                10.7477                48.2861

                     70                     71                     72
                      A                      A                      A
 Frequencies --    716.9861               734.7743               749.7296
 Red. masses --      1.7784                 1.8544                 6.2794
 Frc consts  --      0.5386                 0.5899                 2.0796
 IR Inten    --     44.4938                39.8649                 2.2564

                     73                     74                     75
                      A                      A                      A
 Frequencies --    750.9064               766.5052               781.5318
 Red. masses --      2.1712                 6.0474                 6.0312
 Frc consts  --      0.7213                 2.0934                 2.1704
 IR Inten    --     26.8399                 1.2971                 5.2941

                     76                     77                     78
                      A                      A                      A
 Frequencies --    786.3162               787.7189               794.7635
 Red. masses --      1.5080                 1.5420                 1.8092
 Frc consts  --      0.5493                 0.5637                 0.6733
 IR Inten    --     51.5407                43.9311                34.7854

                     79                     80                     81
                      A                      A                      A
 Frequencies --    833.2986               837.4158               841.8509
 Red. masses --      2.0040                 2.0123                 3.7670
 Frc consts  --      0.8199                 0.8314                 1.5730
 IR Inten    --     15.4788                13.7893                 0.6487

                     82                     83                     84
                      A                      A                      A
 Frequencies --    853.1258               858.0659               877.8996
 Red. masses --      2.2533                 1.9507                 1.2475
 Frc consts  --      0.9663                 0.8462                 0.5665
 IR Inten    --      6.3379                15.1957                 0.0358

                     85                     86                     87
                      A                      A                      A
 Frequencies --    897.2148               936.5963               955.6354
 Red. masses --      4.6780                 1.5030                 1.4120
 Frc consts  --      2.2187                 0.7768                 0.7598
 IR Inten    --      0.1080                38.6902                 0.1228

                     88                     89                     90
                      A                      A                      A
 Frequencies --    959.7493               966.0893               967.7146
 Red. masses --      4.9858                 1.6178                 1.6399
 Frc consts  --      2.7058                 0.8896                 0.9048
 IR Inten    --      0.7238                 3.5602                18.2060

                     91                     92                     93
                      A                      A                      A
 Frequencies --    969.9282               974.8963               977.3129
 Red. masses --      1.4650                 1.4015                 1.6980
 Frc consts  --      0.8120                 0.7848                 0.9555
 IR Inten    --      9.5343                 2.4100                 3.7922

                     94                     95                     96
                      A                      A                      A
 Frequencies --    985.2639              1007.3967              1009.0308
 Red. masses --      3.1399                 1.3591                 1.3599
 Frc consts  --      1.7958                 0.8126                 0.8158
 IR Inten    --      2.7099                 1.3366                 2.2196

                     97                     98                     99
                      A                      A                      A
 Frequencies --   1020.5727              1025.7264              1032.0405
 Red. masses --      5.9787                 1.3804                 1.3608
 Frc consts  --      3.6690                 0.8557                 0.8540
 IR Inten    --      2.2844                 0.0184                 0.1685

                    100                    101                    102
                      A                      A                      A
 Frequencies --   1033.6836              1035.1556              1048.4844
 Red. masses --      1.3791                 1.4172                 1.4065
 Frc consts  --      0.8682                 0.8947                 0.9110
 IR Inten    --      1.8610                 0.5597                 1.2781

                    103                    104                    105
                      A                      A                      A
 Frequencies --   1053.2430              1056.1144              1057.8038
 Red. masses --      1.3556                 4.9714                 2.0835
 Frc consts  --      0.8860                 3.2670                 1.3736
 IR Inten    --      0.0011                 0.4425                 9.1358

                    106                    107                    108
                      A                      A                      A
 Frequencies --   1064.4138              1079.5955              1082.2984
 Red. masses --      4.3753                 2.2173                 2.3270
 Frc consts  --      2.9206                 1.5227                 1.6060
 IR Inten    --      3.9733                14.5746                17.3938

                    109                    110                    111
                      A                      A                      A
 Frequencies --   1097.6364              1104.2119              1111.6658
 Red. masses --      2.2366                 2.0172                 1.4565
 Frc consts  --      1.5877                 1.4491                 1.0605
 IR Inten    --      0.3041                13.3436                 8.6833

                    112                    113                    114
                      A                      A                      A
 Frequencies --   1133.1883              1144.1393              1145.0824
 Red. masses --      2.0240                 1.3135                 1.3110
 Frc consts  --      1.5313                 1.0131                 1.0128
 IR Inten    --      0.0895                30.6279                16.5274

                    115                    116                    117
                      A                      A                      A
 Frequencies --   1173.5417              1173.9844              1181.1561
 Red. masses --      1.3838                 1.4131                 1.0939
 Frc consts  --      1.1229                 1.1475                 0.8991
 IR Inten    --      0.6733                 1.7178                 0.7847

                    118                    119                    120
                      A                      A                      A
 Frequencies --   1195.4105              1203.9685              1217.6365
 Red. masses --      1.1160                 1.3120                 1.6586
 Frc consts  --      0.9396                 1.1205                 1.4489
 IR Inten    --      4.7162                 5.4577                 9.3931

                    121                    122                    123
                      A                      A                      A
 Frequencies --   1232.0670              1238.4680              1239.9806
 Red. masses --      1.3740                 3.5679                 1.4415
 Frc consts  --      1.2289                 3.2243                 1.3058
 IR Inten    --      7.8940                 4.9252                20.7882

                    124                    125                    126
                      A                      A                      A
 Frequencies --   1295.9801              1299.2886              1316.3740
 Red. masses --      2.1123                 1.9404                 2.4884
 Frc consts  --      2.0903                 1.9300                 2.5405
 IR Inten    --      1.0726                 0.5868                11.1159

                    127                    128                    129
                      A                      A                      A
 Frequencies --   1321.8790              1325.3653              1333.3500
 Red. masses --      3.0034                 4.6091                 1.5109
 Frc consts  --      3.0921                 4.7702                 1.5826
 IR Inten    --     20.9825                22.7787                 0.5832

                    130                    131                    132
                      A                      A                      A
 Frequencies --   1337.8955              1357.9938              1368.0960
 Red. masses --      1.8076                 1.8914                 1.5870
 Frc consts  --      1.9063                 2.0551                 1.7501
 IR Inten    --      0.0742                 4.1621                 0.3510

                    133                    134                    135
                      A                      A                      A
 Frequencies --   1369.6230              1369.8163              1377.4790
 Red. masses --      4.3042                 1.7291                 3.5369
 Frc consts  --      4.7571                 1.9116                 3.9541
 IR Inten    --      8.3089                 9.2032                24.3011

                    136                    137                    138
                      A                      A                      A
 Frequencies --   1436.4072              1450.8330              1456.2601
 Red. masses --      2.7805                 4.0326                 1.9166
 Frc consts  --      3.3801                 5.0012                 2.3947
 IR Inten    --     14.2359                 5.5505                 4.5228

                    139                    140                    141
                      A                      A                      A
 Frequencies --   1468.0883              1480.2906              1484.3715
 Red. masses --      3.4503                 3.2252                 3.0717
 Frc consts  --      4.3814                 4.1639                 3.9876
 IR Inten    --      3.0088                77.7593                 4.9300

                    142                    143                    144
                      A                      A                      A
 Frequencies --   1489.8579              1509.2671              1524.7302
 Red. masses --      2.4106                 3.9535                 3.6500
 Frc consts  --      3.1526                 5.3060                 4.9995
 IR Inten    --     14.4588                14.3550                 9.0395

                    145                    146                    147
                      A                      A                      A
 Frequencies --   1534.7914              1537.6575              1543.5759
 Red. masses --      2.7079                 2.4693                 3.1824
 Frc consts  --      3.7583                 3.4399                 4.4674
 IR Inten    --      0.9063                11.1629                40.8158

                    148                    149                    150
                      A                      A                      A
 Frequencies --   1636.7585              1657.2053              1665.3069
 Red. masses --      5.8439                 8.3361                 6.1337
 Frc consts  --      9.2241                13.4885                10.0222
 IR Inten    --     15.4550                 2.5512                 0.7846

                    151                    152                    153
                      A                      A                      A
 Frequencies --   1666.7626              1668.0698              1669.9146
 Red. masses --      5.7110                 5.9262                 5.7706
 Frc consts  --      9.3478                 9.7152                 9.4811
 IR Inten    --      1.6812                13.8703                 3.0364

                    154                    155                    156
                      A                      A                      A
 Frequencies --   1691.3150              1695.3981              1696.7403
 Red. masses --      6.1464                 6.2575                 6.3433
 Frc consts  --     10.3590                10.5973                10.7596
 IR Inten    --      9.1926                 7.1663                28.6017

                    157                    158                    159
                      A                      A                      A
 Frequencies --   1711.7887              1727.9261              2091.1939
 Red. masses --      6.6592                 7.0540                13.3784
 Frc consts  --     11.4966                12.4089                34.4700
 IR Inten    --     14.0779                 0.8771              1466.3717

                    160                    161                    162
                      A                      A                      A
 Frequencies --   2128.8880              2199.2538              2401.0279
 Red. masses --     13.4145                13.3642                12.6845
 Frc consts  --     35.8203                38.0841                43.0842
 IR Inten    --   1304.6872               986.6045               183.4708

                    163                    164                    165
                      A                      A                      A
 Frequencies --   3203.7817              3206.6646              3207.7958
 Red. masses --      1.0928                 1.0893                 1.0886
 Frc consts  --      6.6089                 6.5995                 6.5999
 IR Inten    --     10.0477                 1.7808                 1.3832

                    166                    167                    168
                      A                      A                      A
 Frequencies --   3212.0955              3213.6361              3215.3032
 Red. masses --      1.0931                 1.0935                 1.0879
 Frc consts  --      6.6449                 6.6536                 6.6263
 IR Inten    --      8.2950                11.2499                 0.1923

                    169                    170                    171
                      A                      A                      A
 Frequencies --   3222.5504              3223.5338              3223.8606
 Red. masses --      1.0928                 1.0926                 1.0909
 Frc consts  --      6.6861                 6.6891                 6.6799
 IR Inten    --      0.9886                 1.2782                 1.4633

                    172                    173                    174
                      A                      A                      A
 Frequencies --   3228.4087              3230.5844              3230.8534
 Red. masses --      1.0947                 1.0994                 1.0995
 Frc consts  --      6.7223                 6.7606                 6.7619
 IR Inten    --      4.4437                23.7586                18.5869

                    175                    176                    177
                      A                      A                      A
 Frequencies --   3236.1768              3239.2938              3240.2394
 Red. masses --      1.0986                 1.0924                 1.0965
 Frc consts  --      6.7789                 6.7533                 6.7826
 IR Inten    --      4.3912                 1.1743                 3.8163

                    178                    179                    180
                      A                      A                      A
 Frequencies --   3240.2943              3242.5862              3251.9211
 Red. masses --      1.0997                 1.0930                 1.0999
 Frc consts  --      6.8026                 6.7709                 6.8533
 IR Inten    --      3.8515                 0.9310                 2.3439

                    181                    182                    183
                      A                      A                      A
 Frequencies --   3253.3253              3255.0991              3276.7783
 Red. masses --      1.0964                 1.0963                 1.0896
 Frc consts  --      6.8373                 6.8443                 6.8930
 IR Inten    --      6.3639                 4.9228                 2.0705

 - Thermochemistry -
 -------------------
 Temperature   298.150 Kelvin.  Pressure   1.00000 Atm.
 Atom     1 has atomic number 25 and mass  54.93805

 Molecular mass:   653.01467 amu.
 Principal axes and moments of inertia in atomic units:
                           1         2         3
     Eigenvalues --  ******************************
           X            0.99941  -0.03434  -0.00056
           Y            0.03434   0.99940  -0.00378
           Z            0.00069   0.00376   0.99999
 This molecule is an asymmetric top.
 Rotational symmetry number  1.
 Warning -- assumption of classical behavior for rotation
           may cause significant error
 Rotational temperatures (Kelvin)      0.00432     0.00238     0.00217
 Rotational constants (GHZ):           0.08995     0.04960     0.04520
    1 imaginary frequencies ignored.
 Zero-point vibrational energy    1231730.7 (Joules/Mol)
                                  294.39070 (Kcal/Mol)
 Warning -- explicit consideration of  57 degrees of freedom as
           vibrations may cause significant error
 Vibrational temperatures:      1.46    15.55    24.64    46.32    49.49
          (Kelvin)             58.00    69.35    89.76   101.15   104.11
                              109.22   117.06   139.55   142.09   145.18
                              148.84   152.76   167.24   170.35   226.96
                              242.94   249.95   271.93   283.70   286.34
                              308.39   315.40   334.52   346.43   377.07
                              403.28   446.01   460.66   472.89   498.45
                              536.48   585.65   597.64   615.74   616.31
                              626.68   628.57   638.43   656.47   673.17
                              675.42   677.79   688.03   731.17   744.20
                              747.49   797.08   810.89   832.92   833.17
                              845.04   849.62   895.03   901.09   913.04
                              921.28   922.17   933.36   942.55   963.42
                              965.58   975.94  1000.31  1031.58  1057.18
                             1078.69  1080.39  1102.83  1124.45  1131.33
                             1133.35  1143.49  1198.93  1204.85  1211.24
                             1227.46  1234.57  1263.10  1290.89  1347.55
                             1374.95  1380.87  1389.99  1392.33  1395.51
                             1402.66  1406.14  1417.57  1449.42  1451.77
                             1468.38  1475.79  1484.88  1487.24  1489.36
                             1508.54  1515.38  1519.51  1521.94  1531.45
                             1553.30  1557.19  1579.25  1588.71  1599.44
                             1630.41  1646.16  1647.52  1688.46  1689.10
                             1699.42  1719.93  1732.24  1751.91  1772.67
                             1781.88  1784.06  1864.63  1869.39  1893.97
                             1901.89  1906.91  1918.39  1924.93  1953.85
                             1968.39  1970.58  1970.86  1981.89  2066.67
                             2087.43  2095.23  2112.25  2129.81  2135.68
                             2143.57  2171.50  2193.75  2208.22  2212.35
                             2220.86  2354.93  2384.35  2396.01  2398.10
                             2399.98  2402.63  2433.43  2439.30  2441.23
                             2462.88  2486.10  3008.76  3063.00  3164.24
                             3454.54  4609.53  4613.68  4615.30  4621.49
                             4623.71  4626.10  4636.53  4637.95  4638.42
                             4644.96  4648.09  4648.48  4656.14  4660.62
                             4661.98  4662.06  4665.36  4678.79  4680.81
                             4683.36  4714.55

 Zero-point correction=                           0.469141 (Hartree/Particle)
 Thermal correction to Energy=                    0.504560
 Thermal correction to Enthalpy=                  0.505504
 Thermal correction to Gibbs Free Energy=         0.394907
 Sum of electronic and zero-point Energies=          -5420.975460
 Sum of electronic and thermal Energies=             -5420.940041
 Sum of electronic and thermal Enthalpies=           -5420.939097
 Sum of electronic and thermal Free Energies=        -5421.049694

                     E (Thermal)             CV                S
                      KCal/Mol        Cal/Mol-Kelvin    Cal/Mol-Kelvin
 Total                  316.616            135.021            232.773
 Electronic               0.000              0.000              0.000
 Translational            0.889              2.981             45.311
 Rotational               0.889              2.981             38.608
 Vibrational            314.839            129.059            148.853
 Vibration     1          0.592              1.987             12.556
 Vibration     2          0.593              1.987              7.857
 Vibration     3          0.593              1.986              6.942
 Vibration     4          0.594              1.983              5.690
 Vibration     5          0.594              1.983              5.558
 Vibration     6          0.594              1.981              5.244
 Vibration     7          0.595              1.978              4.890
 Vibration     8          0.597              1.972              4.380
 Vibration     9          0.598              1.968              4.145
 Vibration    10          0.598              1.967              4.088
 Vibration    11          0.599              1.965              3.994
 Vibration    12          0.600              1.962              3.858
 Vibration    13          0.603              1.951              3.514
 Vibration    14          0.604              1.950              3.479
 Vibration    15          0.604              1.948              3.437
 Vibration    16          0.605              1.946              3.388
 Vibration    17          0.605              1.944              3.338
 Vibration    18          0.608              1.936              3.162
 Vibration    19          0.609              1.934              3.126
 Vibration    20          0.621              1.894              2.577
 Vibration    21          0.625              1.881              2.448
 Vibration    22          0.627              1.875              2.395
 Vibration    23          0.633              1.855              2.238
 Vibration    24          0.637              1.844              2.159
 Vibration    25          0.637              1.841              2.142
 Vibration    26          0.644              1.819              2.006
 Vibration    27          0.647              1.812              1.966
 Vibration    28          0.653              1.791              1.860
 Vibration    29          0.658              1.778              1.797
 Vibration    30          0.669              1.742              1.648
 Vibration    31          0.680              1.710              1.532
 Vibration    32          0.699              1.655              1.362
 Vibration    33          0.706              1.635              1.309
 Vibration    34          0.712              1.618              1.267
 Vibration    35          0.724              1.583              1.182
 Vibration    36          0.744              1.528              1.068
 Vibration    37          0.772              1.455              0.937
 Vibration    38          0.779              1.437              0.908
 Vibration    39          0.789              1.409              0.865
 Vibration    40          0.790              1.409              0.864
 Vibration    41          0.796              1.393              0.841
 Vibration    42          0.797              1.390              0.836
 Vibration    43          0.803              1.375              0.815
 Vibration    44          0.814              1.347              0.777
 Vibration    45          0.825              1.321              0.744
 Vibration    46          0.827              1.318              0.739
 Vibration    47          0.828              1.314              0.735
 Vibration    48          0.835              1.298              0.715
 Vibration    49          0.863              1.232              0.638
 Vibration    50          0.872              1.212              0.616
 Vibration    51          0.875              1.207              0.611
 Vibration    52          0.909              1.131              0.536
 Vibration    53          0.919              1.110              0.517
 Vibration    54          0.935              1.077              0.487
 Vibration    55          0.936              1.077              0.487
 Vibration    56          0.944              1.059              0.472
 Vibration    57          0.948              1.052              0.466

 Normal termination of Gaussian 16 at Thu Mar  9 08:23:23 2023.
