 Gaussian 16, Revision A.03,
 Gaussian 16:  ES64L-G16RevA.03 25-Dec-2016

 -------------------------------------------
 # wB97XD Gen SCRF=(Solvent=TetraHydroFuran)
 -------------------------------------------

 ---------------------
 Anth Prod Calculation
 ---------------------
 Symbolic Z-matrix:
 Charge =  0 Multiplicity = 1

                         Standard orientation:
 ---------------------------------------------------------------------
 Center     Atomic      Atomic             Coordinates (Angstroms)
 Number     Number       Type             X           Y           Z
 ---------------------------------------------------------------------
      1         25           0       -1.228730   -0.513759    1.821810
      2          6           0       -1.877590   -1.934309    2.773710
      3          8           0       -2.278150   -2.824379    3.367240
      4          6           0       -2.273409    0.672541    2.756630
      5          8           0       -2.906689    1.408411    3.354750
      6          6           0        0.097090   -0.294280    3.050380
      7          7           0       -0.509829    1.110901    0.611480
      8          6           0       -0.939369    2.872931   -0.955170
      9          6           0        0.421231    3.137510   -1.075460
     10          6           0        0.790931    1.406470    0.526000
     11          1           0       -1.683199    3.445231   -1.510050
     12          1           0        0.784681    3.918360   -1.746920
     13          7           0       -2.680110   -0.750049    0.438070
     14          6           0       -3.517570   -0.890789   -0.343210
     15          6           0       -4.514300   -1.114129   -1.344810
     16          6           0       -4.148510   -1.036089   -2.696740
     17          6           0       -5.112140   -1.262879   -3.673140
     18          6           0       -5.830770   -1.415719   -0.967650
     19          1           0       -3.120590   -0.795099   -2.971780
     20          1           0       -6.100490   -1.461429    0.087930
     21          7           0       -0.044770   -1.876350    0.635790
     22          6           0        0.093900   -3.688770   -0.929810
     23          6           0        1.476340   -3.546250   -1.015610
     24          1           0       -0.432840   -4.450329   -1.505020
     25          6           0       -1.364819    1.853331   -0.114190
     26          1           0       -2.434329    1.651871   -0.012300
     27          6           0       -0.625400   -2.834229   -0.107280
     28          1           0       -1.708600   -2.923689   -0.036640
     29          1           0       -4.839270   -1.200369   -4.727740
     30          8           0        0.911650   -0.156530    3.842610
     31         16           0        3.034651    0.093530   -1.510710
     32         16           0        6.185301    0.590100   -1.383610
     33          6           0        1.317931    2.384650   -0.316880
     34          6           0        2.790571    2.601990   -0.357140
     35          6           0        3.318981    3.828200    0.060730
     36          6           0        4.694541    4.043370    0.082470
     37          6           0        5.566531    3.032170   -0.309990
     38          6           0        5.056011    1.816980   -0.772360
     39          6           0        3.671771    1.598520   -0.803590
     40          1           0        2.636801    4.612690    0.394830
     41          1           0        5.091741    5.000150    0.425600
     42          1           0        6.646821    3.184700   -0.269810
     43          6           0        4.098380   -1.115880   -0.752730
     44          6           0        5.482510   -0.897970   -0.717230
     45          6           0        6.335960   -1.879880   -0.208320
     46          6           0        5.812680   -3.094150    0.226180
     47          6           0        4.437750   -3.313870    0.197220
     48          6           0        3.564700   -2.325130   -0.267860
     49          1           0        7.410540   -1.692120   -0.164920
     50          1           0        6.481140   -3.868490    0.606210
     51          1           0        4.025850   -4.257490    0.561010
     52          6           0        2.095110   -2.563830   -0.244630
     53          1           0        2.066870   -4.185660   -1.674970
     54          6           0        1.286620   -1.781940    0.581820
     55          1           0        1.765110   -1.051550    1.231880
     56          1           0        1.474861    0.852410    1.166600
     57          6           0       -6.423800   -1.564779   -3.303420
     58          6           0       -6.781570   -1.641689   -1.956140
     59          1           0       -7.809910   -1.872589   -1.673970
     60          1           0       -7.177100   -1.739079   -4.074240
     61         35           0       -5.058639    2.446121   -0.051050
 ---------------------------------------------------------------------

 SCF Done:  E(RwB97XD) =  -6142.59386076     A.U. after   19 cycles

 The electronic state is 1-A.
 Alpha  occ. eigenvalues -- -483.01526-235.71498 -89.05123 -89.05021 -62.56424
 Alpha  occ. eigenvalues --  -56.35300 -56.35298 -56.35296 -27.48262 -23.54087
 Alpha  occ. eigenvalues --  -23.53862 -23.53850 -19.33791 -19.33703 -19.33467
 Alpha  occ. eigenvalues --  -14.49793 -14.49150 -14.48436 -10.41093 -10.41075
 Alpha  occ. eigenvalues --  -10.40858 -10.37553 -10.35829 -10.35398 -10.35259
 Alpha  occ. eigenvalues --  -10.35099 -10.34988 -10.34792 -10.34755 -10.34706
 Alpha  occ. eigenvalues --  -10.34105 -10.33685 -10.33436 -10.33394 -10.33209
 Alpha  occ. eigenvalues --  -10.33106 -10.32788 -10.32340 -10.32327 -10.32204
 Alpha  occ. eigenvalues --  -10.31580 -10.31475 -10.31449 -10.31409 -10.31356
 Alpha  occ. eigenvalues --  -10.31207 -10.31194 -10.31115 -10.31054 -10.31034
 Alpha  occ. eigenvalues --   -8.70495  -8.08428  -8.08308  -6.51903  -6.51894
 Alpha  occ. eigenvalues --   -6.51889  -6.03296  -6.03176  -6.02937  -6.02812
 Alpha  occ. eigenvalues --   -6.02370  -6.02259  -3.27248  -2.62405  -2.62404
 Alpha  occ. eigenvalues --   -2.62399  -2.62393  -2.62392  -2.12768  -2.12297
 Alpha  occ. eigenvalues --   -2.12253  -1.24934  -1.24842  -1.24628  -1.09251
 Alpha  occ. eigenvalues --   -1.08421  -1.05936  -1.01586  -0.99393  -0.98817
 Alpha  occ. eigenvalues --   -0.95271  -0.94143  -0.92528  -0.91734  -0.90401
 Alpha  occ. eigenvalues --   -0.89195  -0.88770  -0.87202  -0.87135  -0.86076
 Alpha  occ. eigenvalues --   -0.83318  -0.79222  -0.76665  -0.76132  -0.76024
 Alpha  occ. eigenvalues --   -0.75737  -0.75311  -0.74552  -0.72807  -0.72559
 Alpha  occ. eigenvalues --   -0.70851  -0.70240  -0.69430  -0.67477  -0.66437
 Alpha  occ. eigenvalues --   -0.66254  -0.66157  -0.65191  -0.64452  -0.62483
 Alpha  occ. eigenvalues --   -0.61604  -0.60802  -0.60419  -0.59997  -0.59019
 Alpha  occ. eigenvalues --   -0.58215  -0.57843  -0.57666  -0.57433  -0.57330
 Alpha  occ. eigenvalues --   -0.57183  -0.57054  -0.56762  -0.55821  -0.55493
 Alpha  occ. eigenvalues --   -0.55032  -0.54897  -0.54604  -0.54148  -0.54055
 Alpha  occ. eigenvalues --   -0.53514  -0.53228  -0.53022  -0.52509  -0.52372
 Alpha  occ. eigenvalues --   -0.52278  -0.52053  -0.51984  -0.51451  -0.51231
 Alpha  occ. eigenvalues --   -0.50627  -0.49816  -0.49136  -0.48354  -0.48263
 Alpha  occ. eigenvalues --   -0.47762  -0.47348  -0.46224  -0.45993  -0.45109
 Alpha  occ. eigenvalues --   -0.44822  -0.44454  -0.44156  -0.43917  -0.42215
 Alpha  occ. eigenvalues --   -0.41405  -0.40518  -0.39929  -0.39808  -0.38663
 Alpha  occ. eigenvalues --   -0.37349  -0.36787  -0.36170  -0.35618  -0.35516
 Alpha  occ. eigenvalues --   -0.34385  -0.33066  -0.32604  -0.32459  -0.31443
 Alpha  occ. eigenvalues --   -0.30368  -0.29692  -0.29600  -0.29511
 Alpha virt. eigenvalues --   -0.00777  -0.00342   0.00184   0.00470   0.01411
 Alpha virt. eigenvalues --    0.02336   0.02738   0.03226   0.03488   0.03662
 Alpha virt. eigenvalues --    0.03814   0.04442   0.04565   0.06310   0.06622

 Mulliken charges:
               1
     1  Mn   0.140453
     2  C    0.138800
     3  O   -0.108569
     4  C    0.116842
     5  O   -0.093098
     6  C    0.055470
     7  N   -0.153052
     8  C   -0.153962
     9  C   -0.097680
    10  C    0.029270
    11  H    0.149146
    12  H    0.144190
    13  N   -0.063061
    14  C    0.182764
    15  C    0.146164
    16  C   -0.172434
    17  C   -0.132886
    18  C   -0.165942
    19  H    0.136915
    20  H    0.140384
    21  N   -0.149224
    22  C   -0.162106
    23  C   -0.089394
    24  H    0.145293
    25  C    0.123209
    26  H    0.101060
    27  C    0.087429
    28  H    0.133872
    29  H    0.142373
    30  O   -0.110414
    31  S   -0.058532
    32  S   -0.010808
    33  C    0.009103
    34  C    0.149076
    35  C   -0.200218
    36  C   -0.111436
    37  C   -0.145858
    38  C    0.058951
    39  C   -0.134053
    40  H    0.136448
    41  H    0.142084
    42  H    0.126792
    43  C   -0.129821
    44  C    0.053653
    45  C   -0.143416
    46  C   -0.113086
    47  C   -0.195104
    48  C    0.148806
    49  H    0.127143
    50  H    0.141970
    51  H    0.134404
    52  C   -0.001161
    53  H    0.145350
    54  C    0.032347
    55  H    0.132988
    56  H    0.127385
    57  C   -0.079870
    58  C   -0.129109
    59  H    0.142385
    60  H    0.145209
    61  Br  -0.963432
 Sum of Mulliken charges =  -0.00000

 Dipole moment (field-independent basis, Debye):
    X=             17.0385    Y=            -13.3987    Z=             -4.4732  Tot=             22.1324
 Quadrupole moment (field-independent basis, Debye-Ang):
   XX=           -308.1653   YY=           -253.9360   ZZ=           -270.0893
   XY=             65.0539   XZ=             27.3246   YZ=              6.6220

 Normal termination of Gaussian 16 at Wed Mar 22 12:00:51 2023.
