 Gaussian 16, Revision A.03,
 Gaussian 16:  ES64L-G16RevA.03 25-Dec-2016

 -----------------------------------------------
 # wB97XD Gen Opt SCRF=(Solvent=TetraHydroFuran)
 -----------------------------------------------

 ----------------------------------
 BenzoNitrile Geometry Optimization
 ----------------------------------
 Symbolic Z-matrix:
 Charge =  1 Multiplicity = 1

 SCF Done:  E(RwB97XD) =  -3566.16229499     A.U. after   18 cycles
 SCF Done:  E(RwB97XD) =  -3566.16224408     A.U. after   17 cycles
 SCF Done:  E(RwB97XD) =  -3566.16349475     A.U. after   15 cycles
 SCF Done:  E(RwB97XD) =  -3566.16407594     A.U. after   15 cycles
 SCF Done:  E(RwB97XD) =  -3566.16463713     A.U. after   15 cycles
 SCF Done:  E(RwB97XD) =  -3566.16465427     A.U. after   15 cycles
 SCF Done:  E(RwB97XD) =  -3566.16483773     A.U. after   13 cycles
 SCF Done:  E(RwB97XD) =  -3566.16487404     A.U. after   14 cycles
 SCF Done:  E(RwB97XD) =  -3566.16491421     A.U. after   13 cycles
 SCF Done:  E(RwB97XD) =  -3566.16491393     A.U. after   12 cycles
 SCF Done:  E(RwB97XD) =  -3566.16514020     A.U. after   13 cycles
 SCF Done:  E(RwB97XD) =  -3566.16514449     A.U. after   12 cycles
 SCF Done:  E(RwB97XD) =  -3566.16514614     A.U. after   13 cycles
 SCF Done:  E(RwB97XD) =  -3566.16514815     A.U. after   11 cycles
 SCF Done:  E(RwB97XD) =  -3566.16514868     A.U. after   11 cycles
 SCF Done:  E(RwB97XD) =  -3566.16514907     A.U. after   11 cycles
 SCF Done:  E(RwB97XD) =  -3566.16514929     A.U. after   10 cycles
 SCF Done:  E(RwB97XD) =  -3566.16514942     A.U. after   10 cycles
 SCF Done:  E(RwB97XD) =  -3566.16514945     A.U. after    9 cycles
 SCF Done:  E(RwB97XD) =  -3566.16514946     A.U. after    8 cycles
 Optimization completed.
    -- Stationary point found.

                         Standard orientation:
 ---------------------------------------------------------------------
 Center     Atomic      Atomic             Coordinates (Angstroms)
 Number     Number       Type             X           Y           Z
 ---------------------------------------------------------------------
      1         25           0        3.204958    0.184130   -0.470006
      2          6           0        4.001275   -0.448162   -1.997530
      3          6           0        4.631797   -0.359977    0.526443
      4          6           0        3.984387    1.835434   -0.630640
      5          7           0        2.107049    0.815939    1.276350
      6          7           0        2.177088   -1.693960   -0.197833
      7          6           0        2.704381    1.294116    2.381776
      8          6           0        1.988307    1.792967    3.461194
      9          6           0        0.596302    1.826846    3.403074
     10          6           0       -0.037956    1.326775    2.266225
     11          6           0        0.772881    0.819559    1.251847
     12          6           0        0.915032   -1.835179   -0.614028
     13          6           0        0.069874   -2.869736   -0.219894
     14          6           0        2.680984   -2.677665    0.566273
     15          6           0        1.942667   -3.790527    0.947193
     16          6           0        0.605108   -3.882846    0.573064
     17          6           0       -1.370504   -2.762798   -0.588407
     18          6           0       -1.505197    1.424860    2.025190
     19          6           0       -2.302073    0.316177    1.678340
     20          6           0       -2.232772   -2.005955    0.227024
     21          6           0       -3.643799    0.504535    1.318238
     22          6           0       -3.564169   -1.802891   -0.158555
     23          6           0       -1.870087   -3.340085   -1.757819
     24          6           0       -2.098677    2.692117    2.067467
     25          6           0       -3.437244    2.870334    1.729618
     26          6           0       -3.197685   -3.142007   -2.133059
     27          6           0       -4.039853   -2.358636   -1.349069
     28          6           0       -4.205565    1.782965    1.327543
     29         16           0       -1.645836   -1.336893    1.770040
     30         16           0       -4.671859   -0.875754    0.875466
     31          1           0        2.524374    2.165791    4.334038
     32          1           0        0.013284    2.237544    4.230014
     33          1           0        0.293520    0.414983    0.366457
     34          1           0        0.526221   -1.069447   -1.280899
     35          1           0        3.714030   -2.577023    0.897273
     36          1           0        2.412007   -4.558965    1.561549
     37          1           0       -0.015794   -4.716968    0.905371
     38          1           0       -1.203964   -3.934360   -2.386169
     39          1           0       -1.487026    3.555551    2.337025
     40          1           0       -3.877209    3.868541    1.753317
     41          1           0       -3.575510   -3.588027   -3.054476
     42          1           0       -5.072446   -2.179427   -1.654780
     43          1           0       -5.245043    1.919874    1.023507
     44          8           0        5.560133   -0.649851    1.128532
     45          8           0        4.465207    2.865694   -0.727663
     46          8           0        4.485076   -0.860015   -2.944740
     47          1           0        3.795151    1.287905    2.401594
     48          7           0        1.635773    0.918556   -1.537738
     49          6           0        0.658806    1.381344   -1.944848
     50          1           0       -1.600327    0.156915   -1.315505
     51          6           0       -1.748275    1.097527   -1.849995
     52          6           0       -0.647727    1.855261   -2.288064
     53          6           0       -3.034838    1.556526   -2.102122
     54          1           0       -3.891341    0.974717   -1.756411
     55          6           0       -0.831407    3.059509   -2.981517
     56          6           0       -3.222038    2.757061   -2.789447
     57          6           0       -2.126522    3.502228   -3.229924
     58          1           0        0.030633    3.638628   -3.314704
     59          1           0       -4.234166    3.116224   -2.984869
     60          1           0       -2.282407    4.438233   -3.768292
 ---------------------------------------------------------------------

 The electronic state is 1-A.
 Alpha  occ. eigenvalues -- -235.72193 -89.05376 -89.05040 -27.49203 -23.54995
 Alpha  occ. eigenvalues --  -23.54777 -23.54747 -19.36251 -19.36177 -19.36096
 Alpha  occ. eigenvalues --  -14.52180 -14.52176 -14.52059 -10.43720 -10.43697
 Alpha  occ. eigenvalues --  -10.43623 -10.41374 -10.38180 -10.38132 -10.38085
 Alpha  occ. eigenvalues --  -10.38015 -10.37998 -10.37223 -10.37162 -10.36898
 Alpha  occ. eigenvalues --  -10.36785 -10.35918 -10.35916 -10.35806 -10.35733
 Alpha  occ. eigenvalues --  -10.35710 -10.35671 -10.35632 -10.35430 -10.34675
 Alpha  occ. eigenvalues --  -10.34585 -10.34455 -10.34171 -10.34064 -10.34030
 Alpha  occ. eigenvalues --  -10.33896 -10.33821 -10.33705 -10.33577 -10.33461
 Alpha  occ. eigenvalues --   -8.10435  -8.10158  -6.05898  -6.05617  -6.05509
 Alpha  occ. eigenvalues --   -6.05226  -6.04871  -6.04595  -3.28432  -2.13987
 Alpha  occ. eigenvalues --   -2.13463  -2.13441  -1.25239  -1.25137  -1.25084
 Alpha  occ. eigenvalues --   -1.10009  -1.09520  -1.07548  -1.02529  -1.00201
 Alpha  occ. eigenvalues --   -1.00077  -0.96093  -0.94933  -0.93442  -0.92625
 Alpha  occ. eigenvalues --   -0.91297  -0.90547  -0.89851  -0.88454  -0.87717
 Alpha  occ. eigenvalues --   -0.86839  -0.84199  -0.80127  -0.77571  -0.77430
 Alpha  occ. eigenvalues --   -0.77273  -0.76863  -0.76441  -0.74059  -0.73746
 Alpha  occ. eigenvalues --   -0.71785  -0.71286  -0.70187  -0.68411  -0.68069
 Alpha  occ. eigenvalues --   -0.66932  -0.66823  -0.66199  -0.66084  -0.63970
 Alpha  occ. eigenvalues --   -0.62930  -0.62527  -0.62084  -0.61528  -0.60597
 Alpha  occ. eigenvalues --   -0.59776  -0.59514  -0.59296  -0.59041  -0.58651
 Alpha  occ. eigenvalues --   -0.58339  -0.58237  -0.58155  -0.57344  -0.57075
 Alpha  occ. eigenvalues --   -0.56435  -0.56269  -0.56246  -0.56087  -0.55370
 Alpha  occ. eigenvalues --   -0.55255  -0.54937  -0.54850  -0.54177  -0.53916
 Alpha  occ. eigenvalues --   -0.53798  -0.53421  -0.53310  -0.53041  -0.52614
 Alpha  occ. eigenvalues --   -0.52272  -0.51047  -0.50520  -0.50047  -0.49687
 Alpha  occ. eigenvalues --   -0.49476  -0.48666  -0.48295  -0.47824  -0.46696
 Alpha  occ. eigenvalues --   -0.46468  -0.45991  -0.45632  -0.45202  -0.43650
 Alpha  occ. eigenvalues --   -0.43088  -0.42002  -0.41277  -0.40896  -0.39802
 Alpha  occ. eigenvalues --   -0.38790  -0.38075  -0.37696  -0.37491  -0.36760
 Alpha  occ. eigenvalues --   -0.36117  -0.34480  -0.34008  -0.33568  -0.32725
 Alpha  occ. eigenvalues --   -0.31649
 Alpha virt. eigenvalues --   -0.02705  -0.01464  -0.01176  -0.00236   0.00771
 Alpha virt. eigenvalues --    0.01250   0.01639   0.01921   0.02211   0.02294
 Alpha virt. eigenvalues --    0.02526   0.03276   0.03651   0.04531   0.05374

 Mulliken charges:
               1
     1  Mn  -0.717956
     2  C    0.369854
     3  C    0.291850
     4  C    0.362599
     5  N   -0.213398
     6  N   -0.213193
     7  C    0.102854
     8  C   -0.038386
     9  C    0.054458
    10  C   -0.069500
    11  C    0.182366
    12  C    0.162529
    13  C   -0.096617
    14  C    0.106542
    15  C   -0.037442
    16  C    0.084956
    17  C   -0.035638
    18  C    0.011725
    19  C   -0.078730
    20  C   -0.063061
    21  C   -0.095996
    22  C   -0.098820
    23  C    0.001033
    24  C   -0.015987
    25  C   -0.014915
    26  C   -0.015361
    27  C    0.002993
    28  C    0.005330
    29  S    0.111948
    30  S    0.105315
    31  H    0.068705
    32  H    0.062251
    33  H   -0.019330
    34  H    0.026198
    35  H    0.076627
    36  H    0.070213
    37  H    0.062290
    38  H    0.042862
    39  H    0.042645
    40  H    0.054231
    41  H    0.056326
    42  H    0.046167
    43  H    0.044681
    44  O   -0.045105
    45  O   -0.043645
    46  O   -0.042048
    47  H    0.075982
    48  N    0.083608
    49  C    0.002403
    50  H    0.025339
    51  C    0.030697
    52  C   -0.114876
    53  C    0.000536
    54  H    0.043639
    55  C    0.029899
    56  C    0.004096
    57  C   -0.018276
    58  H    0.059299
    59  H    0.061729
    60  H    0.061503
 Sum of Mulliken charges =   1.00000

 Dipole moment (field-independent basis, Debye):
    X=             -1.1232    Y=              2.1043    Z=             -0.4694  Tot=              2.4311
 Quadrupole moment (field-independent basis, Debye-Ang):
   XX=           -218.2678   YY=           -198.8377   ZZ=           -220.6058
   XY=            -15.6361   XZ=             26.1539   YZ=              2.7034

 Normal termination of Gaussian 16 at Mon Oct 10 10:35:06 2022.
