 Gaussian 16, Revision A.03,
 Gaussian 16:  ES64L-G16RevA.03 25-Dec-2016

 -----------------------------------------------------
 #wB97XD Gen Opt=(QST3) SCRF=(Solvent=TetraHydroFuran)
 -----------------------------------------------------

 ------------------------------------
 Anthracene Transition State Reactant
 ------------------------------------
 Symbolic Z-matrix:
 Charge =  0 Multiplicity = 1

 -----------------------------------
 Anthracene Transition State Product
 -----------------------------------
 Symbolic Z-matrix:
 Charge =  0 Multiplicity = 1

 -----------------------------------------
 Anthracene Transition State Initial Guess
 -----------------------------------------
 Symbolic Z-matrix:
 Charge =  0 Multiplicity = 1

 SCF Done:  E(RwB97XD) =  -5421.43186442     A.U. after   19 cycles
 SCF Done:  E(RwB97XD) =  -5421.43146100     A.U. after   15 cycles
 SCF Done:  E(RwB97XD) =  -5421.43171385     A.U. after   15 cycles
 SCF Done:  E(RwB97XD) =  -5421.43220005     A.U. after   15 cycles
 SCF Done:  E(RwB97XD) =  -5421.43285135     A.U. after   15 cycles
 SCF Done:  E(RwB97XD) =  -5421.43977730     A.U. after   17 cycles
 SCF Done:  E(RwB97XD) =  -5421.44228804     A.U. after   17 cycles
 SCF Done:  E(RwB97XD) =  -5421.44337760     A.U. after   16 cycles
 SCF Done:  E(RwB97XD) =  -5421.44399900     A.U. after   16 cycles
 SCF Done:  E(RwB97XD) =  -5421.44402929     A.U. after   16 cycles
 SCF Done:  E(RwB97XD) =  -5421.44442705     A.U. after   13 cycles
 SCF Done:  E(RwB97XD) =  -5421.44451428     A.U. after   14 cycles
 SCF Done:  E(RwB97XD) =  -5421.44458511     A.U. after   14 cycles
 SCF Done:  E(RwB97XD) =  -5421.44459114     A.U. after   13 cycles
 SCF Done:  E(RwB97XD) =  -5421.44459454     A.U. after   11 cycles
 SCF Done:  E(RwB97XD) =  -5421.44459569     A.U. after   11 cycles
 SCF Done:  E(RwB97XD) =  -5421.44459810     A.U. after   12 cycles
 SCF Done:  E(RwB97XD) =  -5421.44459906     A.U. after   11 cycles
 SCF Done:  E(RwB97XD) =  -5421.44459995     A.U. after   10 cycles
 SCF Done:  E(RwB97XD) =  -5421.44460102     A.U. after   11 cycles
 Optimization completed.
    -- Stationary point found.

                         Standard orientation:
 ---------------------------------------------------------------------
 Center     Atomic      Atomic             Coordinates (Angstroms)
 Number     Number       Type             X           Y           Z
 ---------------------------------------------------------------------
      1         25           0       -1.140844   -2.020309   -0.072472
      2          6           0       -2.056498   -2.894446   -1.419351
      3          8           0       -2.552471   -3.480412   -2.261936
      4          6           0       -2.049009   -2.984961    1.218296
      5          8           0       -2.529477   -3.630732    2.025258
      6          6           0        0.126384   -3.279637   -0.116987
      7          7           0       -0.240457   -0.905822    1.501989
      8          6           0       -0.524784    0.648505    3.298795
      9          6           0        0.849070    0.859639    3.362902
     10          6           0        1.082064   -0.761947    1.630501
     11          1           0       -1.209697    1.176849    3.962032
     12          1           0        1.267719    1.582462    4.066425
     13          7           0       -2.311312    0.826467    0.002082
     14          6           0       -2.750423    1.895937    0.030165
     15          6           0       -3.299695    3.222430    0.066422
     16          6           0       -2.445747    4.330451   -0.041057
     17          6           0       -2.983982    5.612790   -0.005347
     18          6           0       -4.684320    3.396443    0.208635
     19          1           0       -1.370437    4.181308   -0.151899
     20          1           0       -5.338029    2.526538    0.291681
     21          7           0       -0.232943   -0.805274   -1.568578
     22          6           0       -0.505688    0.852377   -3.272425
     23          6           0        0.866930    1.078150   -3.303597
     24          1           0       -1.185528    1.414710   -3.912585
     25          6           0       -1.031797   -0.225995    2.348192
     26          1           0       -2.106977   -0.376999    2.246911
     27          6           0       -1.018150   -0.082905   -2.384485
     28          1           0       -2.093108   -0.249390   -2.309475
     29          1           0       -2.325227    6.478942   -0.088426
     30          8           0        0.955127   -4.071566   -0.145762
     31          6           0        3.212012    0.600113    0.031729
     32          6           0        5.993189    0.600609    0.038852
     33          6           0        1.690844    0.141812    2.509040
     34          6           0        3.168135    0.315174    2.506620
     35          6           0        3.881888    0.269045    3.677817
     36          6           0        5.304127    0.363685    3.684356
     37          6           0        6.000711    0.465657    2.514183
     38          6           0        5.311808    0.513768    1.259505
     39          6           0        3.876322    0.484643    1.255402
     40          1           0        3.357730    0.118093    4.624402
     41          1           0        5.833455    0.322359    4.638121
     42          1           0        7.092415    0.503856    2.516798
     43          6           0        3.882178    0.574204   -1.193728
     44          6           0        5.317791    0.604681   -1.188350
     45          6           0        6.013011    0.650895   -2.439572
     46          6           0        5.322268    0.635070   -3.617544
     47          6           0        3.900313    0.537199   -3.625098
     48          6           0        3.180193    0.495332   -2.457413
     49          1           0        7.104646    0.690943   -2.433986
     50          1           0        5.856203    0.665552   -4.569140
     51          1           0        3.381781    0.454923   -4.583245
     52          6           0        1.703642    0.316349   -2.483342
     53          1           0        1.288644    1.845439   -3.956261
     54          6           0        1.089929   -0.642297   -1.668556
     55          1           0        1.710291   -1.306227   -1.067421
     56          1           0        1.706151   -1.395304    1.000276
     57          6           0       -4.361370    5.789602    0.136159
     58          6           0       -5.208089    4.685192    0.242696
     59          1           0       -6.284379    4.827709    0.353002
     60          1           0       -4.778868    6.798139    0.163616
     61         35           0       -4.948952   -1.710188   -0.010431
     62          1           0        7.085065    0.649608    0.043744
     63          1           0        2.130567    0.703510    0.032900
 ---------------------------------------------------------------------

 The electronic state is 1-A.
 Alpha  occ. eigenvalues -- -482.95450-235.70868 -62.53491 -56.34054 -56.34042
 Alpha  occ. eigenvalues --  -56.34037 -27.47536 -23.53468 -23.53109 -23.53047
 Alpha  occ. eigenvalues --  -19.34579 -19.34549 -19.34480 -14.50816 -14.50808
 Alpha  occ. eigenvalues --  -14.46642 -10.42153 -10.42149 -10.42107 -10.37155
 Alpha  occ. eigenvalues --  -10.37146 -10.36612 -10.36597 -10.36290 -10.35591
 Alpha  occ. eigenvalues --  -10.34657 -10.34642 -10.34560 -10.34550 -10.33579
 Alpha  occ. eigenvalues --  -10.33563 -10.33446 -10.33342 -10.33329 -10.33279
 Alpha  occ. eigenvalues --  -10.33273 -10.33252 -10.32880 -10.32874 -10.32638
 Alpha  occ. eigenvalues --  -10.32390 -10.32331 -10.32322 -10.32278 -10.32115
 Alpha  occ. eigenvalues --  -10.32032 -10.32002 -10.31995 -10.31849 -10.31845
 Alpha  occ. eigenvalues --   -8.70244  -6.51946  -6.51911  -6.51893  -3.26992
 Alpha  occ. eigenvalues --   -2.62450  -2.62444  -2.62430  -2.62402  -2.62400
 Alpha  occ. eigenvalues --   -2.12858  -2.11933  -2.11838  -1.23595  -1.23522
 Alpha  occ. eigenvalues --   -1.23338  -1.08600  -1.08292  -1.02155  -1.00303
 Alpha  occ. eigenvalues --   -0.97878  -0.97632  -0.94480  -0.93281  -0.91393
 Alpha  occ. eigenvalues --   -0.90866  -0.89860  -0.88166  -0.87492  -0.86416
 Alpha  occ. eigenvalues --   -0.85280  -0.85010  -0.81928  -0.76800  -0.75890
 Alpha  occ. eigenvalues --   -0.75416  -0.75397  -0.74764  -0.74595  -0.74404
 Alpha  occ. eigenvalues --   -0.72311  -0.72000  -0.70290  -0.69012  -0.68211
 Alpha  occ. eigenvalues --   -0.65748  -0.65264  -0.65173  -0.64939  -0.64543
 Alpha  occ. eigenvalues --   -0.64525  -0.62674  -0.62128  -0.61074  -0.60185
 Alpha  occ. eigenvalues --   -0.59149  -0.58430  -0.57661  -0.57535  -0.57259
 Alpha  occ. eigenvalues --   -0.56934  -0.56634  -0.56504  -0.56108  -0.55969
 Alpha  occ. eigenvalues --   -0.55729  -0.55289  -0.54924  -0.54846  -0.54461
 Alpha  occ. eigenvalues --   -0.54384  -0.54049  -0.53365  -0.52994  -0.52542
 Alpha  occ. eigenvalues --   -0.52476  -0.52468  -0.51995  -0.51303  -0.51259
 Alpha  occ. eigenvalues --   -0.51137  -0.51126  -0.50557  -0.49465  -0.49101
 Alpha  occ. eigenvalues --   -0.48548  -0.47988  -0.47408  -0.47317  -0.46044
 Alpha  occ. eigenvalues --   -0.45766  -0.45145  -0.44922  -0.43753  -0.43718
 Alpha  occ. eigenvalues --   -0.43386  -0.42442  -0.41857  -0.41242  -0.40727
 Alpha  occ. eigenvalues --   -0.40365  -0.39660  -0.37837  -0.36581  -0.35653
 Alpha  occ. eigenvalues --   -0.35161  -0.33665  -0.33579  -0.33351  -0.33256
 Alpha  occ. eigenvalues --   -0.32218  -0.29676  -0.29549  -0.29260  -0.28006
 Alpha virt. eigenvalues --   -0.03076  -0.00631  -0.00228   0.00665   0.00885
 Alpha virt. eigenvalues --    0.01822   0.01972   0.02429   0.03948   0.04362
 Alpha virt. eigenvalues --    0.04411   0.06215   0.06763   0.06933   0.08994

 Mulliken charges:
               1
     1  Mn  -0.558847
     2  C    0.343958
     3  O   -0.037926
     4  C    0.345987
     5  O   -0.038160
     6  C    0.293281
     7  N   -0.236438
     8  C   -0.039606
     9  C    0.049165
    10  C    0.096117
    11  H    0.063943
    12  H    0.055790
    13  N    0.002828
    14  C   -0.003228
    15  C   -0.160423
    16  C    0.024546
    17  C   -0.026093
    18  C    0.026610
    19  H    0.045899
    20  H    0.066041
    21  N   -0.235563
    22  C   -0.040351
    23  C    0.047341
    24  H    0.063985
    25  C    0.121000
    26  H    0.091097
    27  C    0.121255
    28  H    0.090363
    29  H    0.051296
    30  O   -0.058267
    31  C   -0.184812
    32  C   -0.081400
    33  C   -0.052456
    34  C    0.059007
    35  C   -0.059951
    36  C   -0.018757
    37  C   -0.018340
    38  C    0.018174
    39  C    0.079822
    40  H    0.035018
    41  H    0.043577
    42  H    0.031599
    43  C    0.080226
    44  C    0.018475
    45  C   -0.018384
    46  C   -0.018619
    47  C   -0.061001
    48  C    0.060604
    49  H    0.031615
    50  H    0.043543
    51  H    0.035104
    52  C   -0.050622
    53  H    0.055797
    54  C    0.097258
    55  H    0.061646
    56  H    0.062965
    57  C   -0.006527
    58  C   -0.025049
    59  H    0.053757
    60  H    0.053852
    61  Br  -0.965228
    62  H    0.020402
    63  H    0.053107
 Sum of Mulliken charges =  -0.00000

 Dipole moment (field-independent basis, Debye):
    X=             19.7659    Y=             14.4254    Z=              0.2459  Tot=             24.4713
 Quadrupole moment (field-independent basis, Debye-Ang):
   XX=           -308.2000   YY=           -250.2934   ZZ=           -219.8938
   XY=            -55.8837   XZ=             -1.6748   YZ=             -1.4348

 Normal termination of Gaussian 16 at Sat Feb 18 21:45:30 2023.
