 Gaussian 16, Revision A.03,
 Gaussian 16:  ES64L-G16RevA.03 25-Dec-2016

 -------------------------------------------
 # wB97XD Gen SCRF=(Solvent=TetraHydroFuran)
 -------------------------------------------

 ---------------------
 Anth Prod Calculation
 ---------------------
 Symbolic Z-matrix:
 Charge =  0 Multiplicity = 1

                         Standard orientation:
 ---------------------------------------------------------------------
 Center     Atomic      Atomic             Coordinates (Angstroms)
 Number     Number       Type             X           Y           Z
 ---------------------------------------------------------------------
      1         25           0       -1.442860   -0.160261    2.014120
      2          6           0       -2.204429   -1.548822    2.908910
      3          8           0       -2.683659   -2.427312    3.463490
      4          6           0       -2.213041    1.076118    3.103670
      5          8           0       -2.698041    1.859708    3.781720
      6          6           0       -0.014080   -0.235460    3.094850
      7          7           0       -0.600491    1.440989    0.811850
      8          6           0       -0.823422    3.271249   -0.715810
      9          6           0        0.557368    3.366770   -0.852960
     10          6           0        0.725199    1.591300    0.727670
     11          1           0       -1.489552    3.944489   -1.256610
     12          1           0        1.002408    4.099640   -1.529350
     13          7           0        0.077500    0.172440   -2.404100
     14          6           0       -1.053690    0.197649   -2.647320
     15          6           0       -2.459760    0.231358   -2.944450
     16          6           0       -3.126451    1.462098   -3.013830
     17          6           0       -4.493891    1.487877   -3.266780
     18          6           0       -3.158530   -0.966592   -3.144800
     19          1           0       -2.572201    2.389088   -2.864630
     20          1           0       -2.629369   -1.918492   -3.096010
     21          7           0       -0.590829   -1.561541    0.588570
     22          6           0       -0.804289   -3.141301   -1.198250
     23          6           0        0.576901   -3.206540   -1.348170
     24          1           0       -1.466458   -3.728501   -1.835640
     25          6           0       -1.363801    2.283009    0.097330
     26          1           0       -2.442551    2.140758    0.176040
     27          6           0       -1.349639   -2.291001   -0.244630
     28          1           0       -2.429129   -2.169192   -0.144860
     29          1           0       -5.017361    2.444187   -3.315590
     30          8           0        0.861650   -0.287300    3.838710
     31          6           0        2.912350    0.047461   -0.585570
     32          6           0        5.692350    0.042732   -0.411580
     33          6           0        1.369239    2.497540   -0.122520
     34          6           0        2.854019    2.506301   -0.215690
     35          6           0        3.562048    3.674931   -0.088870
     36          6           0        4.987858    3.681322   -0.095990
     37          6           0        5.690879    2.513992   -0.190560
     38          6           0        5.007689    1.261912   -0.321920
     39          6           0        3.573219    1.261071   -0.382590
     40          1           0        3.028958    4.616811    0.060810
     41          1           0        5.513708    4.632512    0.007290
     42          1           0        6.782999    2.517283   -0.161540
     43          6           0        3.580710   -1.178889   -0.566480
     44          6           0        5.015220   -1.180238   -0.506500
     45          6           0        5.705871   -2.433748   -0.565360
     46          6           0        5.009762   -3.606108   -0.648340
     47          6           0        3.583942   -3.609409   -0.640000
     48          6           0        2.868971   -2.439259   -0.588480
     49          1           0        6.798011   -2.435087   -0.537080
     50          1           0        5.541312   -4.558818   -0.690090
     51          1           0        3.056532   -4.566289   -0.634580
     52          6           0        1.384291   -2.453430   -0.494310
     53          1           0        1.025782   -3.825260   -2.128080
     54          6           0        0.735721   -1.689870    0.483140
     55          1           0        1.340330   -1.154710    1.214000
     56          1           0        1.332859    0.955800    1.370190
     57          6           0       -5.193540    0.294867   -3.452840
     58          6           0       -4.525690   -0.929093   -3.397580
     59          1           0       -5.073979   -1.860573   -3.547980
     60          1           0       -6.267980    0.319406   -3.645160
     61         35           0       -3.722630   -0.071532    0.718970
     62          1           0        1.844870    0.059360   -0.789950
     63          1           0        6.785380    0.044963   -0.393990
 ---------------------------------------------------------------------

 SCF Done:  E(RwB97XD) =  -5423.62032365     A.U. after   21 cycles

 The electronic state is 1-A.
 Alpha  occ. eigenvalues -- -483.05872-235.70258 -62.60687 -56.39647 -56.39538
 Alpha  occ. eigenvalues --  -56.39532 -27.46898 -23.52703 -23.52572 -23.52468
 Alpha  occ. eigenvalues --  -19.32354 -19.32352 -19.32099 -14.48499 -14.48499
 Alpha  occ. eigenvalues --  -14.44442 -10.39890 -10.39888 -10.39610 -10.34664
 Alpha  occ. eigenvalues --  -10.34659 -10.34051 -10.33960 -10.33924 -10.33923
 Alpha  occ. eigenvalues --  -10.32630 -10.32629 -10.32386 -10.32381 -10.31901
 Alpha  occ. eigenvalues --  -10.31899 -10.31686 -10.31674 -10.31436 -10.31435
 Alpha  occ. eigenvalues --  -10.31285 -10.31284 -10.31253 -10.31251 -10.31015
 Alpha  occ. eigenvalues --  -10.30752 -10.30738 -10.30418 -10.30417 -10.30204
 Alpha  occ. eigenvalues --  -10.30204 -10.30175 -10.30104 -10.30103 -10.29649
 Alpha  occ. eigenvalues --   -8.74722  -6.56352  -6.56013  -6.55989  -3.25890
 Alpha  occ. eigenvalues --   -2.66813  -2.66727  -2.66707  -2.66434  -2.66432
 Alpha  occ. eigenvalues --   -2.11338  -2.11035  -2.10910  -1.23551  -1.23486
 Alpha  occ. eigenvalues --   -1.23141  -1.08092  -1.07753  -1.02221  -1.00172
 Alpha  occ. eigenvalues --   -0.98055  -0.97527  -0.94263  -0.93073  -0.91310
 Alpha  occ. eigenvalues --   -0.90627  -0.89575  -0.88364  -0.87203  -0.86754
 Alpha  occ. eigenvalues --   -0.85200  -0.84855  -0.81792  -0.79475  -0.76381
 Alpha  occ. eigenvalues --   -0.75266  -0.74973  -0.74946  -0.74749  -0.73969
 Alpha  occ. eigenvalues --   -0.72162  -0.71959  -0.69698  -0.68609  -0.67909
 Alpha  occ. eigenvalues --   -0.65560  -0.65278  -0.65197  -0.64375  -0.63854
 Alpha  occ. eigenvalues --   -0.63750  -0.61686  -0.61332  -0.59850  -0.59317
 Alpha  occ. eigenvalues --   -0.59107  -0.57437  -0.57316  -0.56831  -0.56697
 Alpha  occ. eigenvalues --   -0.55885  -0.55850  -0.55701  -0.55367  -0.55102
 Alpha  occ. eigenvalues --   -0.54837  -0.54375  -0.54282  -0.54067  -0.53709
 Alpha  occ. eigenvalues --   -0.53396  -0.53091  -0.52733  -0.52232  -0.51568
 Alpha  occ. eigenvalues --   -0.51504  -0.51358  -0.50839  -0.50542  -0.50356
 Alpha  occ. eigenvalues --   -0.50270  -0.50250  -0.49930  -0.48805  -0.47846
 Alpha  occ. eigenvalues --   -0.47627  -0.47336  -0.46945  -0.46606  -0.45483
 Alpha  occ. eigenvalues --   -0.45269  -0.44432  -0.44071  -0.42887  -0.42825
 Alpha  occ. eigenvalues --   -0.42549  -0.41429  -0.40464  -0.40326  -0.39888
 Alpha  occ. eigenvalues --   -0.39203  -0.38778  -0.36815  -0.36028  -0.35906
 Alpha  occ. eigenvalues --   -0.35271  -0.34623  -0.34176  -0.33761  -0.32940
 Alpha  occ. eigenvalues --   -0.32657  -0.31400  -0.30634  -0.30363  -0.27238
 Alpha virt. eigenvalues --   -0.02521   0.00443   0.00688   0.01003   0.02294
 Alpha virt. eigenvalues --    0.02356   0.02868   0.03571   0.03908   0.04685
 Alpha virt. eigenvalues --    0.05303   0.06874   0.06936   0.07494   0.07869

 Mulliken charges:
               1
     1  Mn   0.223678
     2  C    0.182777
     3  O   -0.127242
     4  C    0.181473
     5  O   -0.127158
     6  C    0.001642
     7  N   -0.113802
     8  C   -0.220124
     9  C   -0.084140
    10  C    0.007680
    11  H    0.144472
    12  H    0.139640
    13  N   -0.072246
    14  C   -0.105657
    15  C    0.279538
    16  C   -0.245380
    17  C   -0.090921
    18  C   -0.243655
    19  H    0.154322
    20  H    0.154191
    21  N   -0.114662
    22  C   -0.214317
    23  C   -0.086531
    24  H    0.144327
    25  C    0.048341
    26  H    0.168947
    27  C    0.045139
    28  H    0.168671
    29  H    0.140265
    30  O   -0.142222
    31  C   -0.317565
    32  C   -0.011005
    33  C    0.037953
    34  C    0.089020
    35  C   -0.150350
    36  C   -0.119417
    37  C   -0.130593
    38  C   -0.029595
    39  C    0.002700
    40  H    0.130458
    41  H    0.135935
    42  H    0.122164
    43  C    0.001795
    44  C   -0.029756
    45  C   -0.130579
    46  C   -0.119441
    47  C   -0.150408
    48  C    0.089795
    49  H    0.122185
    50  H    0.135941
    51  H    0.130503
    52  C    0.036742
    53  H    0.139705
    54  C    0.008896
    55  H    0.134089
    56  H    0.134423
    57  C   -0.120692
    58  C   -0.091952
    59  H    0.140138
    60  H    0.142202
    61  Br  -0.761141
    62  H    0.121405
    63  H    0.109398
 Sum of Mulliken charges =  -0.00000

 Dipole moment (field-independent basis, Debye):
    X=              5.7896    Y=              0.6188    Z=             -7.3264  Tot=              9.3583
 Quadrupole moment (field-independent basis, Debye-Ang):
   XX=           -247.1011   YY=           -217.8294   ZZ=           -272.9348
   XY=             -2.4394   XZ=             29.3558   YZ=              3.9061

 Normal termination of Gaussian 16 at Wed Mar 22 15:42:16 2023.
