 Gaussian 16, Revision A.03,
 Gaussian 16:  ES64L-G16RevA.03 25-Dec-2016

 ----------------------------------------------------------------
 # wB97XD Gen SCRF=(Solvent=TetraHydroFuran) Freq(Numer, Restart)
 ----------------------------------------------------------------

 SCF Done:  E(RwB97XD) =  -6140.23096092     A.U. after    6 cycles
 SCF Done:  E(RwB97XD) =  -6140.23096084     A.U. after    6 cycles
 SCF Done:  E(RwB97XD) =  -6140.23096084     A.U. after    6 cycles
 SCF Done:  E(RwB97XD) =  -6140.23096119     A.U. after    5 cycles
 SCF Done:  E(RwB97XD) =  -6140.23096120     A.U. after    6 cycles
 SCF Done:  E(RwB97XD) =  -6140.23096111     A.U. after    5 cycles
 SCF Done:  E(RwB97XD) =  -6140.23096110     A.U. after    6 cycles
 SCF Done:  E(RwB97XD) =  -6140.23096066     A.U. after    6 cycles
 SCF Done:  E(RwB97XD) =  -6140.23096066     A.U. after    6 cycles
 SCF Done:  E(RwB97XD) =  -6140.23096118     A.U. after    6 cycles
 SCF Done:  E(RwB97XD) =  -6140.23096105     A.U. after    5 cycles
 SCF Done:  E(RwB97XD) =  -6140.23096103     A.U. after    6 cycles
 SCF Done:  E(RwB97XD) =  -6140.23096113     A.U. after    6 cycles
 SCF Done:  E(RwB97XD) =  -6140.23096113     A.U. after    5 cycles
 SCF Done:  E(RwB97XD) =  -6140.23096123     A.U. after    6 cycles
 SCF Done:  E(RwB97XD) =  -6140.23096124     A.U. after    6 cycles
 SCF Done:  E(RwB97XD) =  -6140.23096126     A.U. after    5 cycles
 SCF Done:  E(RwB97XD) =  -6140.23096123     A.U. after    5 cycles
 SCF Done:  E(RwB97XD) =  -6140.23096126     A.U. after    6 cycles
 SCF Done:  E(RwB97XD) =  -6140.23096124     A.U. after    5 cycles

 Alpha  occ. eigenvalues -- -482.95274-235.72055 -89.04536 -89.04091 -62.53342
 Alpha  occ. eigenvalues --  -56.33893 -56.33892 -56.33891 -27.48762 -23.54725
 Alpha  occ. eigenvalues --  -23.54308 -23.54256 -19.35890 -19.35743 -19.35553
 Alpha  occ. eigenvalues --  -14.51751 -14.51205 -14.46906 -10.43294 -10.43206
 Alpha  occ. eigenvalues --  -10.43151 -10.37940 -10.37528 -10.37465 -10.36705
 Alpha  occ. eigenvalues --  -10.36397 -10.36272 -10.36251 -10.35966 -10.35873
 Alpha  occ. eigenvalues --  -10.35785 -10.35367 -10.35316 -10.34886 -10.34818
 Alpha  occ. eigenvalues --  -10.34720 -10.34665 -10.34122 -10.33605 -10.33514
 Alpha  occ. eigenvalues --  -10.33193 -10.33153 -10.33032 -10.32999 -10.32798
 Alpha  occ. eigenvalues --  -10.32783 -10.32738 -10.32598 -10.32517 -10.32473
 Alpha  occ. eigenvalues --   -8.70110  -8.09548  -8.09237  -6.51786  -6.51784
 Alpha  occ. eigenvalues --   -6.51780  -6.05014  -6.04697  -6.04622  -6.04302
 Alpha  occ. eigenvalues --   -6.03987  -6.03671  -3.28234  -2.62295  -2.62294
 Alpha  occ. eigenvalues --   -2.62291  -2.62289  -2.62288  -2.14136  -2.13168
 Alpha  occ. eigenvalues --   -2.13036  -1.24869  -1.24717  -1.24483  -1.09363
 Alpha  occ. eigenvalues --   -1.08622  -1.02443  -1.01582  -0.99216  -0.98078
 Alpha  occ. eigenvalues --   -0.95323  -0.94127  -0.92543  -0.91840  -0.90419
 Alpha  occ. eigenvalues --   -0.88960  -0.88354  -0.86888  -0.86611  -0.85994
 Alpha  occ. eigenvalues --   -0.83388  -0.79267  -0.76915  -0.76365  -0.76235
 Alpha  occ. eigenvalues --   -0.75576  -0.74968  -0.74415  -0.72791  -0.72229
 Alpha  occ. eigenvalues --   -0.71061  -0.70412  -0.69290  -0.67524  -0.66320
 Alpha  occ. eigenvalues --   -0.66129  -0.65994  -0.65700  -0.64995  -0.62868
 Alpha  occ. eigenvalues --   -0.62405  -0.61612  -0.60464  -0.59532  -0.59414
 Alpha  occ. eigenvalues --   -0.58657  -0.58201  -0.57944  -0.57840  -0.57743
 Alpha  occ. eigenvalues --   -0.57561  -0.57459  -0.57336  -0.56433  -0.56253
 Alpha  occ. eigenvalues --   -0.55610  -0.55176  -0.55018  -0.54838  -0.54368
 Alpha  occ. eigenvalues --   -0.53777  -0.53549  -0.53262  -0.53050  -0.52988
 Alpha  occ. eigenvalues --   -0.52770  -0.52510  -0.51950  -0.51926  -0.50948
 Alpha  occ. eigenvalues --   -0.49988  -0.49573  -0.48878  -0.48693  -0.48410
 Alpha  occ. eigenvalues --   -0.47954  -0.46349  -0.46238  -0.45914  -0.45812
 Alpha  occ. eigenvalues --   -0.44849  -0.44771  -0.44034  -0.43757  -0.42954
 Alpha  occ. eigenvalues --   -0.42359  -0.41312  -0.40788  -0.40347  -0.38925
 Alpha  occ. eigenvalues --   -0.38039  -0.37431  -0.35993  -0.35739  -0.35224
 Alpha  occ. eigenvalues --   -0.34727  -0.34487  -0.34274  -0.33381  -0.31674
 Alpha  occ. eigenvalues --   -0.30543  -0.29606  -0.29565  -0.29543
 Alpha virt. eigenvalues --   -0.02508  -0.00512  -0.00122   0.00236   0.00647
 Alpha virt. eigenvalues --    0.01212   0.01913   0.02828   0.03132   0.03463
 Alpha virt. eigenvalues --    0.03689   0.04094   0.04492   0.05581   0.05820

 Dipole moment (field-independent basis, Debye):
    X=             28.7828    Y=              8.4248    Z=             -0.3462  Tot=             29.9925
 Quadrupole moment (field-independent basis, Debye-Ang):
   XX=           -404.0776   YY=           -239.0139   ZZ=           -255.3042
   XY=            -38.8073   XZ=             16.4508   YZ=             21.8663

 ******    1 imaginary frequencies (negative Signs) ******

                      1                      2                      3
                      A                      A                      A
 Frequencies --    -64.3529                24.4468                27.0851
 Red. masses --     10.4680                 7.9279                 8.2970
 Frc consts  --      0.0255                 0.0028                 0.0036
 IR Inten    --      3.4109                 2.4504                 3.9422

                      4                      5                      6
                      A                      A                      A
 Frequencies --     30.0000                35.1788                38.7543
 Red. masses --      9.5364                 9.3892                 8.9627
 Frc consts  --      0.0051                 0.0068                 0.0079
 IR Inten    --      4.0976                 5.5377                 2.9209

                      7                      8                      9
                      A                      A                      A
 Frequencies --     44.3175                51.6622                59.5858
 Red. masses --      5.7443                12.3662                17.3867
 Frc consts  --      0.0066                 0.0194                 0.0364
 IR Inten    --      0.5043                 1.9121                16.8259

                     10                     11                     12
                      A                      A                      A
 Frequencies --     67.5324                69.9057                75.2522
 Red. masses --      7.7367                 7.4229                 7.1209
 Frc consts  --      0.0208                 0.0214                 0.0238
 IR Inten    --      1.6166                 0.8864                 0.6872

                     13                     14                     15
                      A                      A                      A
 Frequencies --     84.5636                86.7985                90.7109
 Red. masses --      8.3450                 9.4206                 9.3548
 Frc consts  --      0.0352                 0.0418                 0.0454
 IR Inten    --      1.6040                 1.7896                 0.0615

                     16                     17                     18
                      A                      A                      A
 Frequencies --     93.9534                95.3235               107.2825
 Red. masses --      8.3269                 8.1619                 4.8053
 Frc consts  --      0.0433                 0.0437                 0.0326
 IR Inten    --      0.3989                 1.3430                 2.5256

                     19                     20                     21
                      A                      A                      A
 Frequencies --    116.8321               118.1239               134.4800
 Red. masses --     13.5954                 6.4709                11.6464
 Frc consts  --      0.1093                 0.0532                 0.1241
 IR Inten    --      0.5385                 8.8420                 1.8541

                     22                     23                     24
                      A                      A                      A
 Frequencies --    148.7714               164.4538               168.6251
 Red. masses --      6.5935                 6.1292                 5.6040
 Frc consts  --      0.0860                 0.0977                 0.0939
 IR Inten    --      2.0652                 5.3441                 2.5248

                     25                     26                     27
                      A                      A                      A
 Frequencies --    186.5935               196.9813               204.9074
 Red. masses --      6.6010                 8.2229                 6.8523
 Frc consts  --      0.1354                 0.1880                 0.1695
 IR Inten    --      6.6298                10.3038                 2.5853

                     28                     29                     30
                      A                      A                      A
 Frequencies --    209.7954               212.5682               223.7979
 Red. masses --      7.4653                 5.1782                 5.9849
 Frc consts  --      0.1936                 0.1379                 0.1766
 IR Inten    --      3.7698                 0.6878                 3.8515

                     31                     32                     33
                      A                      A                      A
 Frequencies --    235.0389               245.4872               252.4926
 Red. masses --      5.1440                 7.6288                11.5330
 Frc consts  --      0.1674                 0.2709                 0.4332
 IR Inten    --      0.5868                 0.1170                 0.6220

                     34                     35                     36
                      A                      A                      A
 Frequencies --    281.7470               295.1426               306.9687
 Red. masses --      5.4674                 5.5892                 7.2990
 Frc consts  --      0.2557                 0.2869                 0.4052
 IR Inten    --      1.4410                 0.3680                 1.6873

                     37                     38                     39
                      A                      A                      A
 Frequencies --    328.4616               341.3413               400.9539
 Red. masses --      5.1021                 5.6979                 4.8024
 Frc consts  --      0.3243                 0.3912                 0.4549
 IR Inten    --      3.0875                 0.2712                 0.8862

                     40                     41                     42
                      A                      A                      A
 Frequencies --    402.0534               415.7167               417.3786
 Red. masses --      4.5393                 6.4029                 2.9347
 Frc consts  --      0.4323                 0.6520                 0.3012
 IR Inten    --      1.6327                11.2436                 0.1585

                     43                     44                     45
                      A                      A                      A
 Frequencies --    419.5618               428.0483               435.6789
 Red. masses --      6.9583                 8.7197                 9.5605
 Frc consts  --      0.7217                 0.9413                 1.0692
 IR Inten    --      2.9742                18.1781                 1.0690

                     46                     47                     48
                      A                      A                      A
 Frequencies --    437.3117               441.1422               451.7351
 Red. masses --      8.8793                 6.2081                 4.6276
 Frc consts  --      1.0005                 0.7118                 0.5564
 IR Inten    --      8.0301                 9.1926                 5.0521

                     49                     50                     51
                      A                      A                      A
 Frequencies --    457.6038               469.7957               470.3803
 Red. masses --     12.6710                 8.4980                 6.4726
 Frc consts  --      1.5633                 1.1051                 0.8438
 IR Inten    --      1.6921                 0.4098                 2.5571

                     52                     53                     54
                      A                      A                      A
 Frequencies --    496.3899               502.0098               503.3748
 Red. masses --     13.1776                 6.2836                 9.0806
 Frc consts  --      1.9131                 0.9330                 1.3557
 IR Inten    --     36.7003                 0.9818                12.4210

                     55                     56                     57
                      A                      A                      A
 Frequencies --    518.3417               521.9932               553.6267
 Red. masses --     10.4463                 3.8986                 4.6686
 Frc consts  --      1.6537                 0.6259                 0.8431
 IR Inten    --      4.0810                 0.8426                 3.2542

                     58                     59                     60
                      A                      A                      A
 Frequencies --    579.0640               580.4532               588.6762
 Red. masses --      5.9125                 7.5871                 4.2206
 Frc consts  --      1.1681                 1.5061                 0.8617
 IR Inten    --      0.7684                 0.9685                34.1372

                     61                     62                     63
                      A                      A                      A
 Frequencies --    601.1860               613.2094               622.3867
 Red. masses --      5.2270                 5.1735                 9.1791
 Frc consts  --      1.1131                 1.1462                 2.0949
 IR Inten    --     12.7631                 3.9302                34.8717

                     64                     65                     66
                      A                      A                      A
 Frequencies --    624.4588               627.2874               641.0267
 Red. masses --     12.3328                 6.9126                 6.8634
 Frc consts  --      2.8335                 1.6026                 1.6617
 IR Inten    --     23.4592                10.2688                 0.1391

                     67                     68                     69
                      A                      A                      A
 Frequencies --    665.7716               672.0457               683.8395
 Red. masses --      7.6554                 8.0816                 7.7371
 Frc consts  --      1.9992                 2.1505                 2.1318
 IR Inten    --      9.6561                17.7012                14.1439

                     70                     71                     72
                      A                      A                      A
 Frequencies --    686.8849               691.0940               716.2958
 Red. masses --      7.9842                11.1394                 1.8107
 Frc consts  --      2.2195                 3.1346                 0.5474
 IR Inten    --      8.7019                44.9258                64.7182

                     73                     74                     75
                      A                      A                      A
 Frequencies --    724.7843               746.7725               752.7167
 Red. masses --      1.8631                 2.0681                 5.3270
 Frc consts  --      0.5767                 0.6795                 1.7783
 IR Inten    --     37.3198                40.7720                 9.9547

                     76                     77                     78
                      A                      A                      A
 Frequencies --    758.0900               769.4743               778.5121
 Red. masses --      5.0354                 2.5701                 2.3975
 Frc consts  --      1.7050                 0.8966                 0.8561
 IR Inten    --      2.0366                 6.9931                31.0236

                     79                     80                     81
                      A                      A                      A
 Frequencies --    780.4354               793.0281               826.1632
 Red. masses --      5.8953                 1.8044                 1.7971
 Frc consts  --      2.1156                 0.6686                 0.7227
 IR Inten    --      3.7364                44.3426                11.7533

                     82                     83                     84
                      A                      A                      A
 Frequencies --    828.5402               837.8500               845.5686
 Red. masses --      1.9193                 4.0458                 2.2996
 Frc consts  --      0.7763                 1.6733                 0.9687
 IR Inten    --     47.4698                15.0909                22.6233

                     85                     86                     87
                      A                      A                      A
 Frequencies --    857.2717               869.4587               876.6555
 Red. masses --      1.9371                 2.8936                 1.2446
 Frc consts  --      0.8387                 1.2888                 0.5636
 IR Inten    --     16.8053                 1.0867                 0.3937

                     88                     89                     90
                      A                      A                      A
 Frequencies --    936.5953               957.3060               958.2479
 Red. masses --      1.6242                 1.3782                 1.3836
 Frc consts  --      0.8395                 0.7442                 0.7485
 IR Inten    --      5.1959                 0.1444                 0.0960

                     91                     92                     93
                      A                      A                      A
 Frequencies --    972.7174               984.1884               990.4110
 Red. masses --      1.3904                 1.3662                 1.4256
 Frc consts  --      0.7751                 0.7797                 0.8239
 IR Inten    --     10.8972                 4.2714                 0.5215

                     94                     95                     96
                      A                      A                      A
 Frequencies --   1008.2709              1021.6826              1023.5717
 Red. masses --      1.3658                 3.9999                 1.5431
 Frc consts  --      0.8181                 2.4600                 0.9525
 IR Inten    --      0.5316                 1.2506                 0.3315

                     97                     98                     99
                      A                      A                      A
 Frequencies --   1032.6272              1033.1702              1037.9896
 Red. masses --      1.3664                 1.3662                 1.4147
 Frc consts  --      0.8584                 0.8592                 0.8981
 IR Inten    --      0.3684                 0.4235                 0.0774

                    100                    101                    102
                      A                      A                      A
 Frequencies --   1051.1866              1051.6911              1056.0690
 Red. masses --      1.5492                 1.3599                 4.5683
 Frc consts  --      1.0086                 0.8862                 3.0019
 IR Inten    --      0.2486                 0.3791                 0.1068

                    103                    104                    105
                      A                      A                      A
 Frequencies --   1059.3450              1063.5478              1068.6180
 Red. masses --      2.0921                 6.1319                 5.2507
 Frc consts  --      1.3833                 4.0866                 3.5327
 IR Inten    --      4.8760                 0.4457                 8.4515

                    106                    107                    108
                      A                      A                      A
 Frequencies --   1076.2919              1083.1148              1087.9003
 Red. masses --      5.7671                 4.0794                 3.7410
 Frc consts  --      3.9361                 2.8197                 2.6086
 IR Inten    --      5.8650                37.3267                21.5374

                    109                    110                    111
                      A                      A                      A
 Frequencies --   1107.4617              1113.3978              1118.0350
 Red. masses --      2.0535                 1.4609                 2.0306
 Frc consts  --      1.4839                 1.0670                 1.4955
 IR Inten    --      2.3552                 9.0226                 8.7897

                    112                    113                    114
                      A                      A                      A
 Frequencies --   1140.3490              1143.4017              1145.1271
 Red. masses --      1.3167                 1.6767                 1.3285
 Frc consts  --      1.0088                 1.2915                 1.0264
 IR Inten    --     25.5492                 1.7034                22.4118

                    115                    116                    117
                      A                      A                      A
 Frequencies --   1154.3309              1176.1312              1180.1904
 Red. masses --      1.6787                 1.3994                 1.0889
 Frc consts  --      1.3179                 1.1405                 0.8936
 IR Inten    --      1.7422                 6.5374                 0.6959

                    118                    119                    120
                      A                      A                      A
 Frequencies --   1182.0898              1196.7436              1215.8200
 Red. masses --      1.3468                 1.1166                 1.6504
 Frc consts  --      1.1088                 0.9422                 1.4374
 IR Inten    --      0.0440                 3.0312                 6.1600

                    121                    122                    123
                      A                      A                      A
 Frequencies --   1225.9121              1233.0852              1236.5540
 Red. masses --      1.7155                 1.3256                 3.6046
 Frc consts  --      1.5190                 1.1875                 3.2474
 IR Inten    --     13.5263                15.9311                 7.6255

                    124                    125                    126
                      A                      A                      A
 Frequencies --   1243.1088              1317.7502              1322.5453
 Red. masses --      1.3600                 3.2609                 3.6352
 Frc consts  --      1.2383                 3.3362                 3.7463
 IR Inten    --      6.7177                17.9708                 2.8639

                    127                    128                    129
                      A                      A                      A
 Frequencies --   1325.3557              1327.5135              1335.2083
 Red. masses --      3.6682                 4.5531                 1.4758
 Frc consts  --      3.7964                 4.7275                 1.5502
 IR Inten    --     10.0626                 4.2642                 0.3423

                    130                    131                    132
                      A                      A                      A
 Frequencies --   1342.3704              1346.2710              1357.6562
 Red. masses --      3.6976                 4.1252                 1.6804
 Frc consts  --      3.9257                 4.4051                 1.8249
 IR Inten    --      4.1131                 1.6976                 1.8783

                    133                    134                    135
                      A                      A                      A
 Frequencies --   1372.7290              1373.6328              1442.2827
 Red. masses --      1.3982                 4.6319                 3.0801
 Frc consts  --      1.5523                 5.1493                 3.7750
 IR Inten    --     11.5427                 6.7179               130.0018

                    136                    137                    138
                      A                      A                      A
 Frequencies --   1458.3539              1472.8091              1477.6867
 Red. masses --      3.1399                 2.5259                 2.6570
 Frc consts  --      3.9345                 3.2282                 3.4183
 IR Inten    --      1.5625                16.9203               215.3187

                    139                    140                    141
                      A                      A                      A
 Frequencies --   1490.0382              1497.5774              1504.6246
 Red. masses --      2.4241                 2.6958                 2.7528
 Frc consts  --      3.1711                 3.5622                 3.6718
 IR Inten    --     14.2799                 2.1322                11.2480

                    142                    143                    144
                      A                      A                      A
 Frequencies --   1538.4357              1539.1300              1543.8713
 Red. masses --      2.4628                 3.0665                 2.9648
 Frc consts  --      3.4343                 4.2801                 4.1636
 IR Inten    --      9.6066                 1.0266                18.5906

                    145                    146                    147
                      A                      A                      A
 Frequencies --   1641.2764              1651.1106              1661.2629
 Red. masses --      6.6351                 6.5969                 6.6751
 Frc consts  --     10.5308                10.5961                10.8539
 IR Inten    --     14.3150                15.2884                 1.0157

                    148                    149                    150
                      A                      A                      A
 Frequencies --   1665.9898              1668.8100              1672.8456
 Red. masses --      6.1450                 6.5451                 6.2037
 Frc consts  --     10.0489                10.7393                10.2284
 IR Inten    --      1.3933                 6.3809                10.7729

                    151                    152                    153
                      A                      A                      A
 Frequencies --   1676.7227              1691.4911              1702.8853
 Red. masses --      6.6846                 6.1501                 6.6142
 Frc consts  --     11.0726                10.3675                11.3005
 IR Inten    --      7.9155                13.5243                21.5978

                    154                    155                    156
                      A                      A                      A
 Frequencies --   1705.9058              2106.7228              2133.6586
 Red. masses --      6.3900                13.4021                13.4179
 Frc consts  --     10.9562                35.0458                35.9902
 IR Inten    --     23.4237              1364.5602              1365.9345

                    157                    158                    159
                      A                      A                      A
 Frequencies --   2209.9697              2386.5524              3177.8911
 Red. masses --     13.3668                12.6818                 1.0996
 Frc consts  --     38.4638                42.5571                 6.5429
 IR Inten    --   1116.4307               158.5500               151.3693

                    160                    161                    162
                      A                      A                      A
 Frequencies --   3216.3158              3216.5878              3217.8518
 Red. masses --      1.0891                 1.0890                 1.0879
 Frc consts  --      6.6378                 6.6386                 6.6368
 IR Inten    --      0.6506                 0.8242                 0.1218

                    163                    164                    165
                      A                      A                      A
 Frequencies --   3222.3021              3223.3044              3223.6074
 Red. masses --      1.0932                 1.0935                 1.0938
 Frc consts  --      6.6880                 6.6940                 6.6967
 IR Inten    --      0.4560                 1.2450                 1.2561

                    166                    167                    168
                      A                      A                      A
 Frequencies --   3224.1067              3227.1992              3235.6508
 Red. masses --      1.0932                 1.0920                 1.0967
 Frc consts  --      6.6952                 6.7011                 6.7651
 IR Inten    --      0.2537                 3.7101                 5.7464

                    169                    170                    171
                      A                      A                      A
 Frequencies --   3237.8527              3238.1715              3242.5857
 Red. masses --      1.0998                 1.0998                 1.0930
 Frc consts  --      6.7932                 6.7945                 6.7708
 IR Inten    --      9.2794                 6.0202                 0.6809

                    172                    173                    174
                      A                      A                      A
 Frequencies --   3245.3455              3246.5620              3248.2133
 Red. masses --      1.0979                 1.0970                 1.0982
 Frc consts  --      6.8127                 6.8124                 6.8266
 IR Inten    --      0.9330                 2.4907                 2.1154

                    175                    176                    177
                      A                      A                      A
 Frequencies --   3254.1449              3262.2565              3286.5934
 Red. masses --      1.0999                 1.0951                 1.0899
 Frc consts  --      6.8627                 6.8664                 6.9364
 IR Inten    --      0.1233                 0.8365                 6.2427

 - Thermochemistry -
 -------------------
 Temperature   298.150 Kelvin.  Pressure   1.00000 Atm.
 Atom     1 has atomic number 25 and mass  54.93805

 Molecular mass:   690.94317 amu.
 Principal axes and moments of inertia in atomic units:
                           1         2         3
     Eigenvalues --  ******************************
           X            0.99992  -0.01256   0.00048
           Y            0.01251   0.99808   0.06062
           Z           -0.00125  -0.06061   0.99816
 This molecule is an asymmetric top.
 Rotational symmetry number  1.
 Warning -- assumption of classical behavior for rotation
           may cause significant error
 Rotational temperatures (Kelvin)      0.00465     0.00245     0.00225
 Rotational constants (GHZ):           0.09693     0.05110     0.04688
    1 imaginary frequencies ignored.
 Zero-point vibrational energy    1146087.9 (Joules/Mol)
                                  273.92158 (Kcal/Mol)
 Warning -- explicit consideration of  61 degrees of freedom as
           vibrations may cause significant error
 Vibrational temperatures:     35.17    38.97    43.16    50.61    55.76
          (Kelvin)             63.76    74.33    85.73    97.16   100.58
                              108.27   121.67   124.88   130.51   135.18
                              137.15   154.36   168.10   169.95   193.49
                              214.05   236.61   242.61   268.47   283.41
                              294.82   301.85   305.84   322.00   338.17
                              353.20   363.28   405.37   424.64   441.66
                              472.58   491.11   576.88   578.47   598.12
                              600.51   603.66   615.87   626.84   629.19
                              634.71   649.95   658.39   675.93   676.77
                              714.19   722.28   724.24   745.78   751.03
                              796.55   833.14   835.14   846.97   864.97
                              882.27   895.48   898.46   902.53   922.29
                              957.90   966.92   983.89   988.27   994.33
                             1030.59  1042.80  1074.44  1082.99  1090.72
                             1107.10  1120.11  1122.87  1140.99  1188.66
                             1192.08  1205.48  1216.58  1233.42  1250.96
                             1261.31  1347.55  1377.35  1378.70  1399.52
                             1416.03  1424.98  1450.68  1469.97  1472.69
                             1485.72  1486.50  1493.44  1512.42  1513.15
                             1519.45  1524.16  1530.21  1537.50  1548.54
                             1558.36  1565.25  1593.39  1601.93  1608.60
                             1640.71  1645.10  1647.58  1660.82  1692.19
                             1698.03  1700.76  1721.85  1749.29  1763.81
                             1774.13  1779.13  1788.56  1895.95  1902.85
                             1906.89  1910.00  1921.07  1931.37  1936.98
                             1953.36  1975.05  1976.35  2075.12  2098.25
                             2119.04  2126.06  2143.83  2154.68  2164.82
                             2213.47  2214.46  2221.29  2361.43  2375.58
                             2390.19  2396.99  2401.05  2406.85  2412.43
                             2433.68  2450.07  2454.42  3031.10  3069.86
                             3179.65  3433.72  4572.28  4627.56  4627.95
                             4629.77  4636.17  4637.62  4638.05  4638.77
                             4643.22  4655.38  4658.55  4659.01  4665.36
                             4669.33  4671.08  4673.45  4681.99  4693.66
                             4728.67

 Zero-point correction=                           0.436522 (Hartree/Particle)
 Thermal correction to Energy=                    0.473230
 Thermal correction to Enthalpy=                  0.474175
 Thermal correction to Gibbs Free Energy=         0.365239
 Sum of electronic and zero-point Energies=          -6139.794439
 Sum of electronic and thermal Energies=             -6139.757731
 Sum of electronic and thermal Enthalpies=           -6139.756787
 Sum of electronic and thermal Free Energies=        -6139.865722

                     E (Thermal)             CV                S
                      KCal/Mol        Cal/Mol-Kelvin    Cal/Mol-Kelvin
 Total                  296.957            138.317            229.274
 Electronic               0.000              0.000              0.000
 Translational            0.889              2.981             45.480
 Rotational               0.889              2.981             38.468
 Vibrational            295.179            132.355            145.326
 Vibration     1          0.593              1.985              6.236
 Vibration     2          0.593              1.984              6.032
 Vibration     3          0.594              1.984              5.829
 Vibration     4          0.594              1.982              5.514
 Vibration     5          0.594              1.981              5.322
 Vibration     6          0.595              1.980              5.056
 Vibration     7          0.596              1.977              4.753
 Vibration     8          0.597              1.974              4.471
 Vibration     9          0.598              1.970              4.224
 Vibration    10          0.598              1.968              4.156
 Vibration    11          0.599              1.966              4.011
 Vibration    12          0.601              1.960              3.782
 Vibration    13          0.601              1.958              3.731
 Vibration    14          0.602              1.956              3.645
 Vibration    15          0.603              1.954              3.576
 Vibration    16          0.603              1.953              3.548
 Vibration    17          0.606              1.943              3.318
 Vibration    18          0.608              1.935              3.152
 Vibration    19          0.608              1.934              3.131
 Vibration    20          0.613              1.919              2.881
 Vibration    21          0.618              1.904              2.688
 Vibration    22          0.623              1.886              2.498
 Vibration    23          0.625              1.881              2.451
 Vibration    24          0.632              1.858              2.261
 Vibration    25          0.636              1.844              2.161
 Vibration    26          0.640              1.833              2.089
 Vibration    27          0.642              1.826              2.045
 Vibration    28          0.644              1.822              2.022
 Vibration    29          0.649              1.805              1.928
 Vibration    30          0.655              1.787              1.840
 Vibration    31          0.660              1.770              1.763
 Vibration    32          0.664              1.759              1.713
 Vibration    33          0.681              1.707              1.523
 Vibration    34          0.689              1.683              1.444
 Vibration    35          0.697              1.660              1.379
 Vibration    36          0.712              1.619              1.268
 Vibration    37          0.721              1.593              1.206
 Vibration    38          0.767              1.468              0.959
 Vibration    39          0.768              1.466              0.955
 Vibration    40          0.779              1.436              0.907
 Vibration    41          0.780              1.432              0.901
 Vibration    42          0.782              1.428              0.893
 Vibration    43          0.790              1.409              0.865
 Vibration    44          0.796              1.392              0.840
 Vibration    45          0.798              1.389              0.835
 Vibration    46          0.801              1.380              0.823
 Vibration    47          0.810              1.357              0.791
 Vibration    48          0.816              1.344              0.773
 Vibration    49          0.827              1.317              0.738
 Vibration    50          0.827              1.316              0.736
 Vibration    51          0.852              1.258              0.667
 Vibration    52          0.857              1.246              0.653
 Vibration    53          0.859              1.243              0.650
 Vibration    54          0.873              1.209              0.614
 Vibration    55          0.877              1.201              0.605
 Vibration    56          0.909              1.132              0.537
 Vibration    57          0.936              1.077              0.487
 Vibration    58          0.937              1.074              0.485
 Vibration    59          0.946              1.056              0.470
 Vibration    60          0.959              1.029              0.448
 Vibration    61          0.973              1.004              0.427

 Normal termination of Gaussian 16 at Tue Dec 27 03:52:14 2022.
