 Gaussian 16, Revision A.03,
 Gaussian 16:  ES64L-G16RevA.03 25-Dec-2016

 -----------------------------------------------
 # wB97XD Gen Opt SCRF=(Solvent=TetraHydroFuran)
 -----------------------------------------------

 --------------------------------------
 Mn Reactant Free Geometry Optimization
 --------------------------------------
 Symbolic Z-matrix:
 Charge =  0 Multiplicity = 1

 SCF Done:  E(RwB97XD) =  -5816.10161909     A.U. after   19 cycles
 SCF Done:  E(RwB97XD) =  -5816.10515444     A.U. after   16 cycles
 SCF Done:  E(RwB97XD) =  -5816.10558028     A.U. after   16 cycles
 SCF Done:  E(RwB97XD) =  -5816.10585653     A.U. after   14 cycles
 SCF Done:  E(RwB97XD) =  -5816.10591494     A.U. after   13 cycles
 SCF Done:  E(RwB97XD) =  -5816.10593311     A.U. after   13 cycles
 SCF Done:  E(RwB97XD) =  -5816.10593903     A.U. after   13 cycles
 SCF Done:  E(RwB97XD) =  -5816.10594163     A.U. after   11 cycles
 SCF Done:  E(RwB97XD) =  -5816.10594249     A.U. after   11 cycles
 SCF Done:  E(RwB97XD) =  -5816.10594276     A.U. after   11 cycles
 SCF Done:  E(RwB97XD) =  -5816.10594282     A.U. after   10 cycles
 Optimization completed.
    -- Stationary point found.

                         Standard orientation:
 ---------------------------------------------------------------------
 Center     Atomic      Atomic             Coordinates (Angstroms)
 Number     Number       Type             X           Y           Z
 ---------------------------------------------------------------------
      1         25           0        2.948792   -0.000247    0.124707
      2          6           0        3.970220    1.318303    0.856789
      3          6           0        3.961816   -0.000136   -1.354899
      4          6           0        3.970009   -1.319103    0.856535
      5         35           0        1.734684   -0.000070    2.448045
      6          7           0        1.601342   -1.485919   -0.673517
      7          7           0        1.601501    1.485661   -0.673264
      8          6           0        1.971590   -2.281083   -1.693035
      9          6           0        1.116491   -3.201840   -2.279621
     10          6           0       -0.195135   -3.299158   -1.819640
     11          6           0       -0.595128   -2.476849   -0.769160
     12          6           0        0.352299   -1.609979   -0.218582
     13          6           0        0.352192    1.609201   -0.218940
     14          6           0       -0.594863    2.476842   -0.768963
     15          6           0        1.972350    2.281919   -1.691712
     16          6           0        1.117615    3.203362   -2.277743
     17          6           0       -0.194224    3.300315   -1.818287
     18          6           0       -1.977320    2.485543   -0.214648
     19          6           0       -1.977443   -2.485599   -0.214476
     20          6           0       -2.824648   -1.372056   -0.364774
     21          6           0       -2.824565    1.372015   -0.364871
     22          6           0       -4.098178   -1.374485    0.219787
     23          6           0       -4.098143    1.374583    0.219597
     24          6           0       -2.448898    3.606313    0.475961
     25          6           0       -2.448938   -3.606221    0.476403
     26          6           0       -3.718957   -3.608221    1.048494
     27          6           0       -3.718976    3.608466    1.047907
     28          6           0       -4.536260    2.486665    0.942499
     29          6           0       -4.536242   -2.486433    0.942931
     30         16           0       -2.320819   -0.000072   -1.379315
     31         16           0       -5.201370    0.000047   -0.001305
     32          1           0        1.476753   -3.825371   -3.098045
     33          1           0       -0.899483   -3.997413   -2.276759
     34          1           0        0.087556   -1.004573    0.647734
     35          1           0        0.086893    1.002804    0.646493
     36          1           0        2.996314    2.182864   -2.052743
     37          1           0        1.478341    3.827768   -3.095296
     38          1           0       -0.898243    3.999211   -2.274935
     39          1           0       -1.797285    4.475860    0.583615
     40          1           0       -1.797344   -4.475776    0.584099
     41          1           0       -4.067831   -4.483792    1.598664
     42          1           0       -4.067882    4.484154    1.597869
     43          1           0       -5.521215    2.471941    1.413204
     44          1           0       -5.521159   -2.471617    1.413712
     45          8           0        4.667846   -0.000032   -2.263070
     46          8           0        4.601512   -2.153782    1.317688
     47          8           0        4.601971    2.152848    1.317850
     48          1           0        2.995352   -2.181691   -2.054534
 ---------------------------------------------------------------------

 The electronic state is 1-A.
 Alpha  occ. eigenvalues -- -482.99741-235.69665 -89.03883 -89.03645 -62.57739
 Alpha  occ. eigenvalues --  -56.38372 -56.38263 -56.38260 -27.46606 -23.52392
 Alpha  occ. eigenvalues --  -23.52230 -23.52129 -19.33637 -19.33634 -19.33426
 Alpha  occ. eigenvalues --  -14.50042 -14.50040 -10.41320 -10.41316 -10.41025
 Alpha  occ. eigenvalues --  -10.36244 -10.36243 -10.35993 -10.35991 -10.35654
 Alpha  occ. eigenvalues --  -10.35650 -10.35400 -10.35396 -10.34173 -10.34172
 Alpha  occ. eigenvalues --  -10.34093 -10.34092 -10.34056 -10.34055 -10.33021
 Alpha  occ. eigenvalues --  -10.33021 -10.32583 -10.32582 -10.32329 -10.32328
 Alpha  occ. eigenvalues --  -10.32164 -10.32164  -8.74491  -8.08959  -8.08784
 Alpha  occ. eigenvalues --   -6.56423  -6.56043  -6.56026  -6.04423  -6.04245
 Alpha  occ. eigenvalues --   -6.04030  -6.03851  -6.03397  -6.03220  -3.25806
 Alpha  occ. eigenvalues --   -2.66885  -2.66785  -2.66772  -2.66469  -2.66469
 Alpha  occ. eigenvalues --   -2.11301  -2.10935  -2.10810  -1.22625  -1.22561
 Alpha  occ. eigenvalues --   -1.22242  -1.07875  -1.07522  -1.01020  -0.98578
 Alpha  occ. eigenvalues --   -0.94426  -0.93257  -0.91999  -0.91050  -0.89572
 Alpha  occ. eigenvalues --   -0.88101  -0.86308  -0.85206  -0.82692  -0.79557
 Alpha  occ. eigenvalues --   -0.78689  -0.75760  -0.75703  -0.74930  -0.74657
 Alpha  occ. eigenvalues --   -0.72324  -0.70045  -0.69697  -0.67501  -0.66938
 Alpha  occ. eigenvalues --   -0.64702  -0.64626  -0.64258  -0.64040  -0.62302
 Alpha  occ. eigenvalues --   -0.61170  -0.60699  -0.59953  -0.58065  -0.57739
 Alpha  occ. eigenvalues --   -0.57452  -0.57080  -0.56724  -0.55839  -0.55765
 Alpha  occ. eigenvalues --   -0.55629  -0.54767  -0.54631  -0.54461  -0.54076
 Alpha  occ. eigenvalues --   -0.53855  -0.52893  -0.52773  -0.52422  -0.51944
 Alpha  occ. eigenvalues --   -0.51899  -0.51775  -0.51359  -0.50659  -0.50295
 Alpha  occ. eigenvalues --   -0.49490  -0.48939  -0.48191  -0.48074  -0.47308
 Alpha  occ. eigenvalues --   -0.45061  -0.44577  -0.44216  -0.43679  -0.41876
 Alpha  occ. eigenvalues --   -0.40931  -0.40151  -0.39690  -0.39592  -0.38440
 Alpha  occ. eigenvalues --   -0.36951  -0.36669  -0.36026  -0.35375  -0.34489
 Alpha  occ. eigenvalues --   -0.34094  -0.34039  -0.31619  -0.31263  -0.30623
 Alpha  occ. eigenvalues --   -0.30319  -0.30069
 Alpha virt. eigenvalues --    0.00523   0.00631   0.01147   0.02133   0.03081
 Alpha virt. eigenvalues --    0.03363   0.03889   0.04272   0.04584   0.05097
 Alpha virt. eigenvalues --    0.05577   0.07773   0.07979   0.09337   0.09459

 Mulliken charges:
               1
     1  Mn  -0.792956
     2  C    0.378564
     3  C    0.298482
     4  C    0.378565
     5  Br  -0.635661
     6  N   -0.222423
     7  N   -0.222427
     8  C    0.111708
     9  C   -0.036992
    10  C    0.066352
    11  C   -0.101020
    12  C    0.166338
    13  C    0.166559
    14  C   -0.100964
    15  C    0.111695
    16  C   -0.036993
    17  C    0.066268
    18  C   -0.005438
    19  C   -0.005550
    20  C   -0.046137
    21  C   -0.046202
    22  C   -0.082851
    23  C   -0.082844
    24  C   -0.011751
    25  C   -0.011707
    26  C   -0.018297
    27  C   -0.018295
    28  C   -0.005716
    29  C   -0.005718
    30  S    0.095086
    31  S    0.085667
    32  H    0.059988
    33  H    0.053549
    34  H    0.066792
    35  H    0.066588
    36  H    0.075666
    37  H    0.059984
    38  H    0.053549
    39  H    0.038582
    40  H    0.038577
    41  H    0.050395
    42  H    0.050395
    43  H    0.040571
    44  H    0.040570
    45  O   -0.080484
    46  O   -0.062870
    47  O   -0.062872
    48  H    0.075679
 Sum of Mulliken charges =  -0.00000

 Dipole moment (field-independent basis, Debye):
    X=             -5.9000    Y=              0.0015    Z=             -8.6577  Tot=             10.4769
 Quadrupole moment (field-independent basis, Debye-Ang):
   XX=           -235.0575   YY=           -183.6985   ZZ=           -238.0105
   XY=              0.0067   XZ=            -28.9762   YZ=              0.0016

 Normal termination of Gaussian 16 at Fri Sep 16 16:48:35 2022.
