 Gaussian 16, Revision A.03,
 Gaussian 16:  ES64L-G16RevA.03 25-Dec-2016

 ---------------------------------------------------
 # wB97XD Def2SVP Opt SCRF=(Solvent=TetraHydroFuran)
 ---------------------------------------------------

 ----------------------------------
 BenzoNitrile Geometry Optimization
 ----------------------------------
 Symbolic Z-matrix:
 Charge =  0 Multiplicity = 1

 SCF Done:  E(RwB97XD) =  -324.142107466     A.U. after   12 cycles
 SCF Done:  E(RwB97XD) =  -324.141959182     A.U. after   14 cycles
 SCF Done:  E(RwB97XD) =  -324.143453581     A.U. after   11 cycles
 SCF Done:  E(RwB97XD) =  -324.143436889     A.U. after   11 cycles
 SCF Done:  E(RwB97XD) =  -324.143511809     A.U. after   11 cycles
 SCF Done:  E(RwB97XD) =  -324.143521864     A.U. after    9 cycles
 Optimization completed.
    -- Stationary point found.

                         Standard orientation:
 ---------------------------------------------------------------------
 Center     Atomic      Atomic             Coordinates (Angstroms)
 Number     Number       Type             X           Y           Z
 ---------------------------------------------------------------------
      1          7           0        3.203184   -0.000051   -0.000081
      2          6           0        2.045343    0.000099   -0.000004
      3          6           0        0.606103   -0.000267    0.000159
      4          6           0       -0.090501   -1.217696    0.000002
      5          6           0       -0.090341    1.217557    0.000034
      6          6           0       -1.482157   -1.210386   -0.000016
      7          1           0        0.459711   -2.159963   -0.000009
      8          6           0       -1.481812    1.210619   -0.000045
      9          1           0        0.460479    2.159459    0.000077
     10          6           0       -2.176535    0.000131    0.000008
     11          1           0       -2.027536   -2.155756   -0.000055
     12          1           0       -2.027134    2.156026   -0.000148
     13          1           0       -3.268419    0.000249   -0.000133
 ---------------------------------------------------------------------

 The electronic state is 1-A.
 Alpha  occ. eigenvalues --  -14.45606 -10.35383 -10.35314 -10.33160 -10.33159
 Alpha  occ. eigenvalues --  -10.32472 -10.32220 -10.32218  -1.01190  -0.97592
 Alpha  occ. eigenvalues --   -0.87885  -0.86256  -0.74454  -0.71842  -0.65538
 Alpha  occ. eigenvalues --   -0.58958  -0.57055  -0.54072  -0.52852  -0.50299
 Alpha  occ. eigenvalues --   -0.47192  -0.45674  -0.45343  -0.44567  -0.42833
 Alpha  occ. eigenvalues --   -0.35517  -0.34816
 Alpha virt. eigenvalues --    0.00877   0.04081   0.10300   0.13473   0.14854
 Alpha virt. eigenvalues --    0.17913   0.18326   0.22412   0.23003   0.23835
 Alpha virt. eigenvalues --    0.25910   0.31317   0.34970   0.35076   0.36282

 Mulliken charges:
               1
     1  N   -0.028270
     2  C   -0.060566
     3  C   -0.151652
     4  C    0.025702
     5  C    0.025718
     6  C   -0.026752
     7  H    0.048201
     8  C   -0.026680
     9  H    0.048208
    10  C   -0.008638
    11  H    0.051192
    12  H    0.051194
    13  H    0.052342
 Sum of Mulliken charges =  -0.00000

 Dipole moment (field-independent basis, Debye):
    X=             -5.4122    Y=             -0.0003    Z=             -0.0000  Tot=              5.4122
 Quadrupole moment (field-independent basis, Debye-Ang):
   XX=            -56.6997   YY=            -38.2995   ZZ=            -48.5628
   XY=              0.0006   XZ=              0.0013   YZ=             -0.0000

 1\1\GINC-C401-134\FOpt\RwB97XD\def2SVP\C7H5N1\DMCINTOS\08-Oct-2022\0\\
 # wB97XD Def2SVP Opt SCRF=(Solvent=TetraHydroFuran)\\BenzoNitrile Geom
 etry Optimization\\0,1\N,1.752652254,1.0899924167,-1.5519577977\C,0.71
 97088135,1.4266522461,-1.9523120147\C,-0.5640363874,1.8453281427,-2.45
 04288282\C,-0.6413790723,2.6010696391,-3.6295235427\C,-1.7295427737,1.
 4948563544,-1.7526510107\C,-1.886095093,3.0025702073,-4.105171041\H,0.
 2705423987,2.8690290875,-4.1654305741\C,-2.9677222936,1.9028253613,-2.
 2391830735\H,-1.6591102052,0.9067665108,-0.836260565\C,-3.0465023473,2

 Normal termination of Gaussian 16 at Sat Oct  8 17:02:02 2022.
