 Gaussian 16, Revision A.03,
 Gaussian 16:  ES64L-G16RevA.03 25-Dec-2016

 -------------------------------------------
 # wB97XD Gen SCRF=(Solvent=TetraHydroFuran)
 -------------------------------------------

 ---------------------
 Anth Prod Calculation
 ---------------------
 Symbolic Z-matrix:
 Charge =  0 Multiplicity = 1

                         Standard orientation:
 ---------------------------------------------------------------------
 Center     Atomic      Atomic             Coordinates (Angstroms)
 Number     Number       Type             X           Y           Z
 ---------------------------------------------------------------------
      1         25           0       -1.140840   -2.020309   -0.072470
      2          6           0       -2.056500   -2.894449   -1.419350
      3          8           0       -2.552470   -3.480409   -2.261940
      4          6           0       -2.049010   -2.984959    1.218300
      5          8           0       -2.529480   -3.630729    2.025260
      6          6           0        0.126380   -3.279639   -0.116990
      7          7           0       -0.240460   -0.905819    1.501990
      8          6           0       -0.524780    0.648511    3.298800
      9          6           0        0.849070    0.859641    3.362900
     10          6           0        1.082060   -0.761949    1.630500
     11          1           0       -1.209700    1.176851    3.962030
     12          1           0        1.267720    1.582461    4.066420
     13          7           0       -2.311310    0.826471    0.002080
     14          6           0       -2.750420    1.895941    0.030170
     15          6           0       -3.299690    3.222431    0.066420
     16          6           0       -2.445750    4.330451   -0.041060
     17          6           0       -2.983980    5.612791   -0.005350
     18          6           0       -4.684320    3.396441    0.208630
     19          1           0       -1.370440    4.181311   -0.151900
     20          1           0       -5.338030    2.526541    0.291680
     21          7           0       -0.232940   -0.805269   -1.568580
     22          6           0       -0.505690    0.852381   -3.272430
     23          6           0        0.866930    1.078151   -3.303600
     24          1           0       -1.185530    1.414711   -3.912590
     25          6           0       -1.031800   -0.225999    2.348190
     26          1           0       -2.106980   -0.376999    2.246910
     27          6           0       -1.018150   -0.082909   -2.384490
     28          1           0       -2.093110   -0.249389   -2.309470
     29          1           0       -2.325230    6.478941   -0.088430
     30          8           0        0.955130   -4.071569   -0.145760
     31          6           0        3.212010    0.600111    0.031730
     32          6           0        5.993190    0.600611    0.038850
     33          6           0        1.690840    0.141811    2.509040
     34          6           0        3.168130    0.315171    2.506620
     35          6           0        3.881890    0.269041    3.677820
     36          6           0        5.304130    0.363681    3.684360
     37          6           0        6.000710    0.465661    2.514180
     38          6           0        5.311810    0.513771    1.259510
     39          6           0        3.876320    0.484641    1.255400
     40          1           0        3.357730    0.118091    4.624400
     41          1           0        5.833450    0.322361    4.638120
     42          1           0        7.092410    0.503861    2.516800
     43          6           0        3.882180    0.574201   -1.193730
     44          6           0        5.317790    0.604681   -1.188350
     45          6           0        6.013010    0.650901   -2.439570
     46          6           0        5.322270    0.635071   -3.617540
     47          6           0        3.900310    0.537201   -3.625100
     48          6           0        3.180190    0.495331   -2.457410
     49          1           0        7.104650    0.690941   -2.433990
     50          1           0        5.856200    0.665551   -4.569140
     51          1           0        3.381780    0.454921   -4.583240
     52          6           0        1.703640    0.316351   -2.483340
     53          1           0        1.288640    1.845441   -3.956260
     54          6           0        1.089930   -0.642299   -1.668560
     55          1           0        1.710290   -1.306229   -1.067420
     56          1           0        1.706150   -1.395299    1.000280
     57          6           0       -4.361370    5.789601    0.136160
     58          6           0       -5.208090    4.685191    0.242700
     59          1           0       -6.284380    4.827711    0.353000
     60          1           0       -4.778870    6.798141    0.163620
     61         35           0       -4.948950   -1.710189   -0.010430
     62          1           0        7.085070    0.649611    0.043740
     63          1           0        2.130570    0.703511    0.032900
 ---------------------------------------------------------------------

 SCF Done:  E(RwB97XD) =  -5423.58173285     A.U. after   21 cycles

 The electronic state is 1-A.
 Alpha  occ. eigenvalues -- -483.01726-235.71511 -62.56610 -56.35496 -56.35484
 Alpha  occ. eigenvalues --  -56.35480 -27.47884 -23.53841 -23.53505 -23.53438
 Alpha  occ. eigenvalues --  -19.33321 -19.33291 -19.33284 -14.49531 -14.49523
 Alpha  occ. eigenvalues --  -14.45089 -10.40827 -10.40764 -10.40757 -10.35635
 Alpha  occ. eigenvalues --  -10.35626 -10.35101 -10.35088 -10.34570 -10.34464
 Alpha  occ. eigenvalues --  -10.33436 -10.33421 -10.33144 -10.33138 -10.32460
 Alpha  occ. eigenvalues --  -10.32445 -10.32159 -10.32154 -10.32144 -10.31958
 Alpha  occ. eigenvalues --  -10.31948 -10.31939 -10.31773 -10.31766 -10.31379
 Alpha  occ. eigenvalues --  -10.31127 -10.31024 -10.30950 -10.30942 -10.30766
 Alpha  occ. eigenvalues --  -10.30656 -10.30651 -10.30621 -10.30503 -10.30500
 Alpha  occ. eigenvalues --   -8.70672  -6.52099  -6.52066  -6.52051  -3.27148
 Alpha  occ. eigenvalues --   -2.62598  -2.62592  -2.62581  -2.62554  -2.62553
 Alpha  occ. eigenvalues --   -2.12986  -2.12096  -2.12002  -1.24544  -1.24467
 Alpha  occ. eigenvalues --   -1.24346  -1.09124  -1.08812  -1.02883  -1.00780
 Alpha  occ. eigenvalues --   -0.98442  -0.98115  -0.94966  -0.93761  -0.91870
 Alpha  occ. eigenvalues --   -0.91354  -0.90347  -0.88750  -0.87998  -0.87074
 Alpha  occ. eigenvalues --   -0.85789  -0.85527  -0.82413  -0.77107  -0.76117
 Alpha  occ. eigenvalues --   -0.75736  -0.75716  -0.75149  -0.74761  -0.74655
 Alpha  occ. eigenvalues --   -0.72591  -0.72399  -0.70428  -0.69213  -0.68849
 Alpha  occ. eigenvalues --   -0.65977  -0.65955  -0.65839  -0.65017  -0.64725
 Alpha  occ. eigenvalues --   -0.64481  -0.62485  -0.62002  -0.60716  -0.59966
 Alpha  occ. eigenvalues --   -0.59420  -0.58334  -0.57911  -0.57433  -0.57006
 Alpha  occ. eigenvalues --   -0.56807  -0.56496  -0.56392  -0.56045  -0.55674
 Alpha  occ. eigenvalues --   -0.55651  -0.55122  -0.54880  -0.54716  -0.54434
 Alpha  occ. eigenvalues --   -0.54247  -0.53963  -0.53091  -0.52885  -0.52362
 Alpha  occ. eigenvalues --   -0.52317  -0.52292  -0.51937  -0.51144  -0.51118
 Alpha  occ. eigenvalues --   -0.51005  -0.50868  -0.50436  -0.49315  -0.48924
 Alpha  occ. eigenvalues --   -0.48337  -0.47959  -0.47360  -0.47153  -0.45889
 Alpha  occ. eigenvalues --   -0.45618  -0.44999  -0.44640  -0.43574  -0.43414
 Alpha  occ. eigenvalues --   -0.43206  -0.42185  -0.41693  -0.41065  -0.40567
 Alpha  occ. eigenvalues --   -0.40136  -0.39475  -0.37620  -0.36364  -0.35582
 Alpha  occ. eigenvalues --   -0.35054  -0.33701  -0.33548  -0.33307  -0.33164
 Alpha  occ. eigenvalues --   -0.32326  -0.29774  -0.29648  -0.29376  -0.27854
 Alpha virt. eigenvalues --   -0.03104  -0.00770  -0.00349   0.00522   0.00722
 Alpha virt. eigenvalues --    0.01727   0.01874   0.02297   0.03480   0.04161
 Alpha virt. eigenvalues --    0.04290   0.06040   0.06602   0.06731   0.07412

 Mulliken charges:
               1
     1  Mn   0.359096
     2  C    0.167622
     3  O   -0.093312
     4  C    0.165645
     5  O   -0.093307
     6  C   -0.047600
     7  N   -0.149927
     8  C   -0.174717
     9  C   -0.107104
    10  C   -0.033333
    11  H    0.142658
    12  H    0.144226
    13  N   -0.146600
    14  C    0.033699
    15  C    0.179930
    16  C   -0.191345
    17  C   -0.122828
    18  C   -0.196587
    19  H    0.137524
    20  H    0.149089
    21  N   -0.152616
    22  C   -0.176319
    23  C   -0.107923
    24  H    0.142671
    25  C    0.084409
    26  H    0.146532
    27  C    0.083776
    28  H    0.147030
    29  H    0.142775
    30  O   -0.119945
    31  C   -0.298842
    32  C   -0.014679
    33  C   -0.001599
    34  C    0.102216
    35  C   -0.136699
    36  C   -0.121114
    37  C   -0.125408
    38  C   -0.011603
    39  C   -0.038009
    40  H    0.133069
    41  H    0.138019
    42  H    0.123940
    43  C   -0.036458
    44  C   -0.010319
    45  C   -0.125334
    46  C   -0.121408
    47  C   -0.137440
    48  C    0.101644
    49  H    0.123910
    50  H    0.137974
    51  H    0.132901
    52  C   -0.001146
    53  H    0.144282
    54  C   -0.032352
    55  H    0.146208
    56  H    0.145901
    57  C   -0.101074
    58  C   -0.118007
    59  H    0.144840
    60  H    0.145140
    61  Br  -0.941110
    62  H    0.112058
    63  H    0.227278
 Sum of Mulliken charges =  -0.00000

 Dipole moment (field-independent basis, Debye):
    X=             19.4486    Y=             14.6787    Z=              0.2550  Tot=             24.3676
 Quadrupole moment (field-independent basis, Debye-Ang):
   XX=           -306.6347   YY=           -250.6749   ZZ=           -220.3474
   XY=            -56.2301   XZ=             -1.7222   YZ=             -1.4684

 Normal termination of Gaussian 16 at Wed Mar 22 14:01:19 2023.
