 Gaussian 16, Revision A.03,
 Gaussian 16:  ES64L-G16RevA.03 25-Dec-2016

 ---------------------------------------------------------------
 # wB97XD Gen Opt=(QST3, Restart) SCRF=(Solvent=TetraHydroFuran)
 ---------------------------------------------------------------

 SCF Done:  E(RwB97XD) =  -6140.23069287     A.U. after   16 cycles
 SCF Done:  E(RwB97XD) =  -6140.23078110     A.U. after   15 cycles
 SCF Done:  E(RwB97XD) =  -6140.23053149     A.U. after   17 cycles
 SCF Done:  E(RwB97XD) =  -6140.23086733     A.U. after   16 cycles
 SCF Done:  E(RwB97XD) =  -6140.23089096     A.U. after   15 cycles
 SCF Done:  E(RwB97XD) =  -6140.23090887     A.U. after   15 cycles
 SCF Done:  E(RwB97XD) =  -6140.23093458     A.U. after   14 cycles
 SCF Done:  E(RwB97XD) =  -6140.23095017     A.U. after   13 cycles
 SCF Done:  E(RwB97XD) =  -6140.23092235     A.U. after   15 cycles
 SCF Done:  E(RwB97XD) =  -6140.23095702     A.U. after   12 cycles
 SCF Done:  E(RwB97XD) =  -6140.23096423     A.U. after   13 cycles
 SCF Done:  E(RwB97XD) =  -6140.23096467     A.U. after   12 cycles
 SCF Done:  E(RwB97XD) =  -6140.23095287     A.U. after   14 cycles
 SCF Done:  E(RwB97XD) =  -6140.23095859     A.U. after   13 cycles
 SCF Done:  E(RwB97XD) =  -6140.23090117     A.U. after   16 cycles
 SCF Done:  E(RwB97XD) =  -6140.23096565     A.U. after   15 cycles
 SCF Done:  E(RwB97XD) =  -6140.23095366     A.U. after   14 cycles
 SCF Done:  E(RwB97XD) =  -6140.23096263     A.U. after   13 cycles
 SCF Done:  E(RwB97XD) =  -6140.23096186     A.U. after   11 cycles
 SCF Done:  E(RwB97XD) =  -6140.23096125     A.U. after   11 cycles
 Optimization completed.
    -- Stationary point found.

                         Standard orientation:
 ---------------------------------------------------------------------
 Center     Atomic      Atomic             Coordinates (Angstroms)
 Number     Number       Type             X           Y           Z
 ---------------------------------------------------------------------
      1         25           0        2.244279   -1.557984   -1.060549
      2          6           0        3.004537   -3.236188   -0.983062
      3          8           0        3.470561   -4.276539   -0.974029
      4          6           0        3.727144   -0.939351   -1.984186
      5          8           0        4.623030   -0.598685   -2.597882
      6          6           0        1.449932   -1.980193   -2.616750
      7          7           0        1.521442    0.419691   -0.983645
      8          6           0        1.932286    2.702931   -0.388603
      9          6           0        0.622226    3.048224   -0.707124
     10          6           0        0.283263    0.773151   -1.340789
     11          1           0        2.648380    3.438625   -0.021008
     12          1           0        0.265538    4.072590   -0.579646
     13          7           0        2.607046   -0.536801    1.932576
     14          6           0        1.709246    0.017042    2.410269
     15          6           0        0.552012    0.679223    2.945026
     16          6           0       -0.426725   -0.070221    3.614122
     17          6           0       -1.571393    0.563922    4.084576
     18          6           0        0.391252    2.060056    2.763937
     19          1           0       -0.285869   -1.141449    3.760212
     20          1           0        1.166370    2.635791    2.257973
     21          7           0        0.659246   -2.278372    0.153795
     22          6           0       -0.027763   -3.414822    2.148831
     23          6           0       -1.365066   -3.138961    1.873452
     24          1           0        0.264187   -3.966782    3.042318
     25          6           0        2.338941    1.383067   -0.517964
     26          1           0        3.361117    1.109238   -0.235740
     27          6           0        0.950007   -2.954538    1.280607
     28          1           0        2.004644   -3.123938    1.499684
     29          1           0       -2.337247   -0.016126    4.602133
     30          8           0        0.914113   -2.233089   -3.594889
     31         16           0       -2.401580    0.594556    0.500972
     32         16           0       -5.398741    1.169935   -0.417413
     33          6           0       -0.235885    2.057603   -1.185172
     34          6           0       -1.655761    2.326324   -1.539910
     35          6           0       -1.951075    3.265518   -2.533952
     36          6           0       -3.267095    3.518191   -2.911381
     37          6           0       -4.312083    2.834115   -2.298077
     38          6           0       -4.039210    1.925222   -1.273071
     39          6           0       -2.716418    1.665674   -0.888534
     40          1           0       -1.130125    3.786303   -3.031031
     41          1           0       -3.479592    4.242111   -3.699785
     42          1           0       -5.345425    3.010298   -2.603093
     43          6           0       -3.498367   -0.764162    0.143738
     44          6           0       -4.819836   -0.498757   -0.242803
     45          6           0       -5.724422   -1.545422   -0.436519
     46          6           0       -5.324311   -2.857357   -0.203520
     47          6           0       -4.013816   -3.128612    0.179490
     48          6           0       -3.081515   -2.096868    0.336337
     49          1           0       -6.743873   -1.325304   -0.759149
     50          1           0       -6.034598   -3.674875   -0.337294
     51          1           0       -3.694090   -4.160619    0.338092
     52          6           0       -1.682064   -2.435788    0.712128
     53          1           0       -2.153330   -3.458543    2.558391
     54          6           0       -0.629230   -2.067231   -0.126236
     55          1           0       -0.863109   -1.591378   -1.075279
     56          1           0       -0.345301    0.009782   -1.794236
     57          6           0       -1.740123    1.935699    3.892098
     58          6           0       -0.760179    2.681666    3.236603
     59          1           0       -0.891446    3.755546    3.093794
     60          1           0       -2.643510    2.427964    4.257287
     61         35           0        5.847103    1.841955    0.538775
 ---------------------------------------------------------------------

 The electronic state is 1-A.
 Alpha  occ. eigenvalues -- -482.95274-235.72055 -89.04536 -89.04091 -62.53342
 Alpha  occ. eigenvalues --  -56.33893 -56.33892 -56.33891 -27.48762 -23.54725
 Alpha  occ. eigenvalues --  -23.54308 -23.54256 -19.35890 -19.35743 -19.35553
 Alpha  occ. eigenvalues --  -14.51751 -14.51205 -14.46906 -10.43294 -10.43207
 Alpha  occ. eigenvalues --  -10.43151 -10.37940 -10.37528 -10.37465 -10.36705
 Alpha  occ. eigenvalues --  -10.36397 -10.36273 -10.36251 -10.35967 -10.35873
 Alpha  occ. eigenvalues --  -10.35784 -10.35367 -10.35316 -10.34886 -10.34818
 Alpha  occ. eigenvalues --  -10.34720 -10.34665 -10.34122 -10.33604 -10.33514
 Alpha  occ. eigenvalues --  -10.33194 -10.33153 -10.33032 -10.32999 -10.32799
 Alpha  occ. eigenvalues --  -10.32783 -10.32738 -10.32598 -10.32517 -10.32473
 Alpha  occ. eigenvalues --   -8.70110  -8.09548  -8.09237  -6.51786  -6.51784
 Alpha  occ. eigenvalues --   -6.51780  -6.05014  -6.04697  -6.04622  -6.04302
 Alpha  occ. eigenvalues --   -6.03987  -6.03671  -3.28234  -2.62295  -2.62294
 Alpha  occ. eigenvalues --   -2.62290  -2.62289  -2.62288  -2.14136  -2.13168
 Alpha  occ. eigenvalues --   -2.13036  -1.24869  -1.24718  -1.24483  -1.09363
 Alpha  occ. eigenvalues --   -1.08623  -1.02442  -1.01582  -0.99216  -0.98078
 Alpha  occ. eigenvalues --   -0.95323  -0.94128  -0.92543  -0.91840  -0.90419
 Alpha  occ. eigenvalues --   -0.88960  -0.88354  -0.86888  -0.86611  -0.85994
 Alpha  occ. eigenvalues --   -0.83388  -0.79267  -0.76915  -0.76365  -0.76235
 Alpha  occ. eigenvalues --   -0.75576  -0.74968  -0.74415  -0.72791  -0.72229
 Alpha  occ. eigenvalues --   -0.71061  -0.70412  -0.69290  -0.67524  -0.66320
 Alpha  occ. eigenvalues --   -0.66129  -0.65994  -0.65700  -0.64995  -0.62868
 Alpha  occ. eigenvalues --   -0.62405  -0.61612  -0.60465  -0.59532  -0.59414
 Alpha  occ. eigenvalues --   -0.58657  -0.58201  -0.57944  -0.57840  -0.57743
 Alpha  occ. eigenvalues --   -0.57561  -0.57459  -0.57336  -0.56434  -0.56253
 Alpha  occ. eigenvalues --   -0.55610  -0.55176  -0.55018  -0.54838  -0.54367
 Alpha  occ. eigenvalues --   -0.53777  -0.53549  -0.53262  -0.53050  -0.52988
 Alpha  occ. eigenvalues --   -0.52770  -0.52510  -0.51950  -0.51926  -0.50948
 Alpha  occ. eigenvalues --   -0.49988  -0.49573  -0.48878  -0.48693  -0.48410
 Alpha  occ. eigenvalues --   -0.47954  -0.46349  -0.46238  -0.45913  -0.45812
 Alpha  occ. eigenvalues --   -0.44849  -0.44771  -0.44034  -0.43757  -0.42954
 Alpha  occ. eigenvalues --   -0.42359  -0.41312  -0.40788  -0.40347  -0.38925
 Alpha  occ. eigenvalues --   -0.38039  -0.37431  -0.35993  -0.35739  -0.35224
 Alpha  occ. eigenvalues --   -0.34727  -0.34487  -0.34275  -0.33381  -0.31674
 Alpha  occ. eigenvalues --   -0.30543  -0.29606  -0.29565  -0.29543
 Alpha virt. eigenvalues --   -0.02508  -0.00512  -0.00122   0.00236   0.00647
 Alpha virt. eigenvalues --    0.01212   0.01913   0.02828   0.03132   0.03463
 Alpha virt. eigenvalues --    0.03689   0.04094   0.04491   0.05581   0.05819

 Mulliken charges:
               1
     1  Mn  -0.508827
     2  C    0.322771
     3  O   -0.035083
     4  C    0.330464
     5  O   -0.023476
     6  C    0.289430
     7  N   -0.242252
     8  C   -0.054781
     9  C    0.063683
    10  C    0.152302
    11  H    0.084477
    12  H    0.057681
    13  N   -0.031556
    14  C    0.012526
    15  C   -0.137687
    16  C    0.022521
    17  C   -0.024501
    18  C    0.027005
    19  H    0.038246
    20  H    0.050258
    21  N   -0.240161
    22  C   -0.044310
    23  C    0.051868
    24  H    0.071648
    25  C    0.102297
    26  H    0.111280
    27  C    0.108710
    28  H    0.089230
    29  H    0.049223
    30  O   -0.042009
    31  S    0.105684
    32  S    0.090939
    33  C   -0.085749
    34  C    0.001535
    35  C   -0.018569
    36  C   -0.016944
    37  C   -0.004074
    38  C   -0.084023
    39  C   -0.052057
    40  H    0.042323
    41  H    0.052960
    42  H    0.042931
    43  C   -0.053114
    44  C   -0.084774
    45  C   -0.002691
    46  C   -0.016974
    47  C   -0.020466
    48  C    0.004030
    49  H    0.043660
    50  H    0.053000
    51  H    0.041088
    52  C   -0.081817
    53  H    0.061583
    54  C    0.162595
    55  H    0.040243
    56  H    0.043788
    57  C    0.003560
    58  C   -0.026762
    59  H    0.051436
    60  H    0.053752
    61  Br  -0.998072
 Sum of Mulliken charges =  -0.00000

 Dipole moment (field-independent basis, Debye):
    X=            -28.7833    Y=             -8.4250    Z=             -0.3507  Tot=             29.9930
 Quadrupole moment (field-independent basis, Debye-Ang):
   XX=           -404.0792   YY=           -239.0132   ZZ=           -255.3091
   XY=            -38.8079   XZ=            -16.4775   YZ=            -21.8749

 Normal termination of Gaussian 16 at Wed Dec 14 00:43:39 2022.
