 Gaussian 16, Revision A.03,
 Gaussian 16:  ES64L-G16RevA.03 25-Dec-2016

 -------------------------------------------
 # wB97XD Gen SCRF=(Solvent=TetraHydroFuran)
 -------------------------------------------

 ---------------------
 Anth Prod Calculation
 ---------------------
 Symbolic Z-matrix:
 Charge =  0 Multiplicity = 1

                         Standard orientation:
 ---------------------------------------------------------------------
 Center     Atomic      Atomic             Coordinates (Angstroms)
 Number     Number       Type             X           Y           Z
 ---------------------------------------------------------------------
      1         25           0       -0.897291   -0.433051    1.755810
      2          6           0       -1.490901   -1.826341    2.781410
      3          8           0       -1.856280   -2.699341    3.420820
      4          6           0       -1.899042    0.786549    2.694600
      5          8           0       -2.506432    1.545409    3.290520
      6          6           0        0.479079   -0.173770    2.918100
      7          7           0       -0.238302    1.163550    0.457990
      8          6           0       -0.709872    2.764719   -1.259780
      9          6           0        0.644628    3.032040   -1.423620
     10          6           0        1.055408    1.488420    0.347680
     11          1           0       -1.466962    3.268769   -1.861220
     12          1           0        0.987497    3.736380   -2.184670
     13          7           0       -2.427721   -0.722091    0.469260
     14          6           0       -3.323521   -0.906362   -0.234630
     15          6           0       -4.395311   -1.189262   -1.138980
     16          6           0       -4.116771   -1.304392   -2.509070
     17          6           0       -5.154851   -1.588822   -3.389400
     18          6           0       -5.698301   -1.356462   -0.648670
     19          1           0       -3.097851   -1.165822   -2.873770
     20          1           0       -5.898431   -1.252213    0.418180
     21          7           0        0.235599   -1.842930    0.550340
     22          6           0        0.300660   -3.606660   -1.072610
     23          6           0        1.678050   -3.467220   -1.211440
     24          1           0       -0.253950   -4.343150   -1.654350
     25          6           0       -1.112002    1.818379   -0.325600
     26          1           0       -2.175712    1.604879   -0.197470
     27          6           0       -0.381670   -2.771161   -0.199590
     28          1           0       -1.462920   -2.849451   -0.097950
     29          1           0       -4.950181   -1.676392   -4.457580
     30          8           0        1.320639   -0.011470    3.677000
     31          6           0        3.474189    0.156101   -0.803860
     32          6           0        6.217619    0.594882   -0.671360
     33          6           0        1.567848    2.380610   -0.600930
     34          6           0        3.035218    2.603251   -0.707690
     35          6           0        3.556497    3.872571   -0.719430
     36          6           0        4.964417    4.095501   -0.748460
     37          6           0        5.838088    3.045842   -0.726810
     38          6           0        5.354428    1.697902   -0.710560
     39          6           0        3.937018    1.472301   -0.748700
     40          1           0        2.885167    4.732881   -0.667030
     41          1           0        5.337747    5.121282   -0.756910
     42          1           0        6.916688    3.218412   -0.714290
     43          6           0        4.320079   -0.944919   -0.657000
     44          6           0        5.737229   -0.720058   -0.616500
     45          6           0        6.612159   -1.851088   -0.534810
     46          6           0        6.105080   -3.117638   -0.467660
     47          6           0        4.696570   -3.337739   -0.444160
     48          6           0        3.811150   -2.292709   -0.524340
     49          1           0        7.691229   -1.681548   -0.520280
     50          1           0        6.776390   -3.975838   -0.401180
     51          1           0        4.321460   -4.356679   -0.322530
     52          6           0        2.344630   -2.523019   -0.428190
     53          1           0        2.231460   -4.077890   -1.927820
     54          6           0        1.568339   -1.771660    0.463490
     55          1           0        2.067979   -1.073470    1.134020
     56          1           0        1.741618    1.016450    1.050260
     57          6           0       -6.453771   -1.756343   -2.906760
     58          6           0       -6.724381   -1.641633   -1.541990
     59          1           0       -7.742901   -1.768763   -1.172120
     60          1           0       -7.265650   -1.976283   -3.602830
     61         35           0       -4.788542    2.478258   -0.065930
     62          1           0        7.297209    0.766042   -0.667210
     63          1           0        2.412959   -0.017699   -0.956880
 ---------------------------------------------------------------------

 SCF Done:  E(RwB97XD) =  -5423.61404709     A.U. after   19 cycles

 The electronic state is 1-A.
 Alpha  occ. eigenvalues -- -483.01523-235.71532 -62.56422 -56.35298 -56.35296
 Alpha  occ. eigenvalues --  -56.35294 -27.48267 -23.54095 -23.53870 -23.53857
 Alpha  occ. eigenvalues --  -19.33765 -19.33713 -19.33486 -14.49763 -14.49121
 Alpha  occ. eigenvalues --  -14.48511 -10.41089 -10.41079 -10.40881 -10.37621
 Alpha  occ. eigenvalues --  -10.35758 -10.35313 -10.35192 -10.34798 -10.34053
 Alpha  occ. eigenvalues --  -10.33622 -10.33315 -10.33052 -10.32678 -10.32462
 Alpha  occ. eigenvalues --  -10.32410 -10.32273 -10.32267 -10.32226 -10.32082
 Alpha  occ. eigenvalues --  -10.32019 -10.31736 -10.31693 -10.31511 -10.31323
 Alpha  occ. eigenvalues --  -10.31159 -10.31051 -10.30992 -10.30771 -10.30716
 Alpha  occ. eigenvalues --  -10.30666 -10.30528 -10.30521 -10.30515 -10.30392
 Alpha  occ. eigenvalues --   -8.70493  -6.51902  -6.51892  -6.51887  -3.27258
 Alpha  occ. eigenvalues --   -2.62404  -2.62403  -2.62398  -2.62391  -2.62390
 Alpha  occ. eigenvalues --   -2.12785  -2.12294  -2.12273  -1.24926  -1.24842
 Alpha  occ. eigenvalues --   -1.24649  -1.09154  -1.08342  -1.06011  -1.00728
 Alpha  occ. eigenvalues --   -0.98860  -0.98047  -0.94906  -0.93633  -0.91800
 Alpha  occ. eigenvalues --   -0.91296  -0.90110  -0.89234  -0.87839  -0.87239
 Alpha  occ. eigenvalues --   -0.85687  -0.85415  -0.82306  -0.77031  -0.76012
 Alpha  occ. eigenvalues --   -0.75843  -0.75756  -0.75302  -0.74631  -0.74458
 Alpha  occ. eigenvalues --   -0.72597  -0.72525  -0.70493  -0.69310  -0.69079
 Alpha  occ. eigenvalues --   -0.66430  -0.66288  -0.66166  -0.65054  -0.64704
 Alpha  occ. eigenvalues --   -0.64223  -0.62441  -0.61933  -0.60661  -0.60474
 Alpha  occ. eigenvalues --   -0.59733  -0.59027  -0.57912  -0.57761  -0.57397
 Alpha  occ. eigenvalues --   -0.57205  -0.57061  -0.56746  -0.56354  -0.55755
 Alpha  occ. eigenvalues --   -0.55631  -0.55498  -0.55123  -0.54912  -0.54607
 Alpha  occ. eigenvalues --   -0.54440  -0.54098  -0.53531  -0.53184  -0.53053
 Alpha  occ. eigenvalues --   -0.52441  -0.52261  -0.52136  -0.51859  -0.51312
 Alpha  occ. eigenvalues --   -0.51228  -0.50920  -0.50802  -0.50651  -0.49087
 Alpha  occ. eigenvalues --   -0.48634  -0.48068  -0.47631  -0.47353  -0.47091
 Alpha  occ. eigenvalues --   -0.46150  -0.46022  -0.44630  -0.44528  -0.43361
 Alpha  occ. eigenvalues --   -0.43199  -0.42143  -0.41423  -0.40861  -0.40526
 Alpha  occ. eigenvalues --   -0.39944  -0.39366  -0.37496  -0.36361  -0.36221
 Alpha  occ. eigenvalues --   -0.35661  -0.33544  -0.33101  -0.33068  -0.32597
 Alpha  occ. eigenvalues --   -0.32497  -0.29693  -0.29596  -0.29511  -0.27805
 Alpha virt. eigenvalues --   -0.03019  -0.00823  -0.00095   0.00357   0.01518
 Alpha virt. eigenvalues --    0.01971   0.02407   0.03106   0.03471   0.03746
 Alpha virt. eigenvalues --    0.04418   0.06069   0.06223   0.06871   0.07626

 Mulliken charges:
               1
     1  Mn   0.151765
     2  C    0.149029
     3  O   -0.108024
     4  C    0.120503
     5  O   -0.092558
     6  C    0.047339
     7  N   -0.155351
     8  C   -0.164934
     9  C   -0.108599
    10  C   -0.036770
    11  H    0.147575
    12  H    0.143312
    13  N   -0.071322
    14  C    0.181033
    15  C    0.149597
    16  C   -0.171275
    17  C   -0.134997
    18  C   -0.169243
    19  H    0.136985
    20  H    0.141127
    21  N   -0.156274
    22  C   -0.173289
    23  C   -0.102938
    24  H    0.143163
    25  C    0.130099
    26  H    0.101649
    27  C    0.089363
    28  H    0.137199
    29  H    0.142323
    30  O   -0.110336
    31  C   -0.293266
    32  C   -0.014393
    33  C   -0.009823
    34  C    0.100865
    35  C   -0.136203
    36  C   -0.119445
    37  C   -0.127608
    38  C   -0.014576
    39  C   -0.032975
    40  H    0.133848
    41  H    0.137955
    42  H    0.123729
    43  C   -0.036347
    44  C   -0.016587
    45  C   -0.125501
    46  C   -0.121033
    47  C   -0.136354
    48  C    0.107177
    49  H    0.124079
    50  H    0.137763
    51  H    0.132373
    52  C   -0.017018
    53  H    0.144882
    54  C   -0.028834
    55  H    0.141086
    56  H    0.138232
    57  C   -0.079251
    58  C   -0.127709
    59  H    0.142567
    60  H    0.145281
    61  Br  -0.965308
    62  H    0.112302
    63  H    0.223941
 Sum of Mulliken charges =  -0.00000

 Dipole moment (field-independent basis, Debye):
    X=             16.8576    Y=            -13.7195    Z=             -6.3855  Tot=             22.6534
 Quadrupole moment (field-independent basis, Debye-Ang):
   XX=           -274.2456   YY=           -248.3327   ZZ=           -255.5676
   XY=             65.3451   XZ=             13.6043   YZ=              6.1219

 Normal termination of Gaussian 16 at Wed Mar 22 12:22:00 2023.
