 Gaussian 16, Revision A.03,
 Gaussian 16:  ES64L-G16RevA.03 25-Dec-2016

 -------------------------------------------
 # wB97XD Gen SCRF=(Solvent=TetraHydroFuran)
 -------------------------------------------

 ---------------------
 Anth Prod Calculation
 ---------------------
 Symbolic Z-matrix:
 Charge =  0 Multiplicity = 1

                         Standard orientation:
 ---------------------------------------------------------------------
 Center     Atomic      Atomic             Coordinates (Angstroms)
 Number     Number       Type             X           Y           Z
 ---------------------------------------------------------------------
      1         25           0        2.075000   -1.587429    1.061710
      2          6           0        3.084350   -1.320608    2.552520
      3          8           0        3.717500   -1.145178    3.488790
      4          6           0        2.846610   -3.202339    0.727890
      5          8           0        3.328740   -4.215828    0.507240
      6          6           0        0.814350   -2.379929    2.060830
      7          7           0        0.922940   -1.751739   -0.763210
      8          6           0        0.742300   -1.738929   -3.154140
      9          6           0       -0.646560   -1.814159   -3.080940
     10          6           0       -0.406940   -1.871439   -0.706320
     11          1           0        1.255280   -1.693869   -4.115010
     12          1           0       -1.257880   -1.817309   -3.985710
     13          7           0        5.233719    3.233012   -1.575040
     14          6           0        4.080259    3.203862   -1.671960
     15          6           0        2.646039    3.172461   -1.784000
     16          6           0        1.913949    4.364821   -1.691590
     17          6           0        0.525539    4.323201   -1.775090
     18          6           0        1.990409    1.946201   -1.963820
     19          1           0        2.433569    5.313971   -1.550630
     20          1           0        2.573479    1.025061   -2.007600
     21          7           0        1.189349    0.369411    1.291630
     22          6           0        1.352489    2.756111    1.430190
     23          6           0       -0.026211    2.872701    1.573510
     24          1           0        1.994589    3.636751    1.413180
     25          6           0        1.486060   -1.697569   -1.981730
     26          1           0        2.572770   -1.604719   -2.004450
     27          6           0        1.918179    1.497091    1.277670
     28          1           0        2.991359    1.375742    1.123910
     29          1           0       -0.049271    5.248071   -1.701370
     30          8           0        0.054700   -2.918499    2.735750
     31         16           0       -2.534221    0.704930   -0.788540
     32         16           0       -5.658151    0.502430   -0.162130
     33          6           0       -1.244120   -1.874199   -1.822720
     34          6           0       -2.719050   -1.922940   -1.613510
     35          6           0       -3.446830   -3.068860   -1.947580
     36          6           0       -4.814970   -3.140800   -1.693690
     37          6           0       -5.476310   -2.069920   -1.098460
     38          6           0       -4.773640   -0.900170   -0.799240
     39          6           0       -3.399540   -0.822470   -1.059420
     40          1           0       -2.925330   -3.919560   -2.390940
     41          1           0       -5.368760   -4.046850   -1.945470
     42          1           0       -6.542940   -2.133050   -0.874300
     43          6           0       -3.151911    1.186170    0.807140
     44          6           0       -4.528451    1.119030    1.063220
     45          6           0       -5.041221    1.594050    2.272570
     46          6           0       -4.185211    2.171580    3.205830
     47          6           0       -2.815451    2.226000    2.960620
     48          6           0       -2.275711    1.713241    1.775710
     49          1           0       -6.111761    1.519450    2.473390
     50          1           0       -4.587321    2.561780    4.142330
     51          1           0       -2.142211    2.647081    3.710190
     52          6           0       -0.797761    1.710451    1.586460
     53          1           0       -0.498581    3.852541    1.670440
     54          6           0       -0.130241    0.491781    1.465610
     55          1           0       -0.713150   -0.425239    1.530650
     56          1           0       -0.860270   -1.975089    0.278800
     57          6           0       -0.128711    3.103101   -1.949440
     58          6           0        0.602619    1.919001   -2.044460
     59          1           0        0.087119    0.965221   -2.169100
     60          1           0       -1.218841    3.073111   -2.007920
     61         35           0        4.153590   -0.606658   -0.199440
 ---------------------------------------------------------------------

 SCF Done:  E(RwB97XD) =  -6142.60150711     A.U. after   20 cycles

 The electronic state is 1-A.
 Alpha  occ. eigenvalues -- -483.06082-235.70407 -89.05067 -89.05063 -62.60902
 Alpha  occ. eigenvalues --  -56.39860 -56.39752 -56.39746 -27.47061 -23.52869
 Alpha  occ. eigenvalues --  -23.52733 -23.52627 -19.32494 -19.32485 -19.32260
 Alpha  occ. eigenvalues --  -14.49121 -14.48718 -14.44246 -10.40026 -10.40024
 Alpha  occ. eigenvalues --  -10.39768 -10.35348 -10.34997 -10.34965 -10.34957
 Alpha  occ. eigenvalues --  -10.34759 -10.34757 -10.34496 -10.34178 -10.34052
 Alpha  occ. eigenvalues --  -10.33680 -10.33344 -10.33255 -10.33247 -10.33112
 Alpha  occ. eigenvalues --  -10.32983 -10.32726 -10.31864 -10.31789 -10.31526
 Alpha  occ. eigenvalues --  -10.31482 -10.31427 -10.31386 -10.31306 -10.31229
 Alpha  occ. eigenvalues --  -10.31138 -10.31100 -10.31099 -10.30874 -10.30689
 Alpha  occ. eigenvalues --   -8.74941  -8.08396  -8.08349  -6.56569  -6.56231
 Alpha  occ. eigenvalues --   -6.56212  -6.03261  -6.03217  -6.02901  -6.02852
 Alpha  occ. eigenvalues --   -6.02339  -6.02301  -3.26060  -2.67031  -2.66943
 Alpha  occ. eigenvalues --   -2.66928  -2.66655  -2.66654  -2.11513  -2.11203
 Alpha  occ. eigenvalues --   -2.11082  -1.23692  -1.23625  -1.23304  -1.08670
 Alpha  occ. eigenvalues --   -1.08129  -1.01927  -1.01568  -0.99337  -0.98079
 Alpha  occ. eigenvalues --   -0.95058  -0.93963  -0.92526  -0.91533  -0.90196
 Alpha  occ. eigenvalues --   -0.88603  -0.88387  -0.87119  -0.86779  -0.85916
 Alpha  occ. eigenvalues --   -0.83259  -0.79764  -0.79171  -0.76215  -0.75984
 Alpha  occ. eigenvalues --   -0.75549  -0.75145  -0.74742  -0.72799  -0.72122
 Alpha  occ. eigenvalues --   -0.70593  -0.70154  -0.68166  -0.67421  -0.65555
 Alpha  occ. eigenvalues --   -0.65398  -0.65358  -0.64505  -0.64321  -0.62312
 Alpha  occ. eigenvalues --   -0.61148  -0.60475  -0.59910  -0.59095  -0.58138
 Alpha  occ. eigenvalues --   -0.57692  -0.57631  -0.57304  -0.57079  -0.56690
 Alpha  occ. eigenvalues --   -0.56007  -0.55854  -0.55621  -0.54829  -0.54711
 Alpha  occ. eigenvalues --   -0.54517  -0.54238  -0.53740  -0.53575  -0.53309
 Alpha  occ. eigenvalues --   -0.52923  -0.52495  -0.52392  -0.52027  -0.51927
 Alpha  occ. eigenvalues --   -0.51633  -0.51237  -0.50689  -0.50625  -0.49813
 Alpha  occ. eigenvalues --   -0.49545  -0.48965  -0.48249  -0.48164  -0.47541
 Alpha  occ. eigenvalues --   -0.47225  -0.45451  -0.45274  -0.45056  -0.44666
 Alpha  occ. eigenvalues --   -0.44395  -0.44151  -0.43760  -0.42637  -0.41905
 Alpha  occ. eigenvalues --   -0.40919  -0.40197  -0.39831  -0.39551  -0.38738
 Alpha  occ. eigenvalues --   -0.36941  -0.36723  -0.36107  -0.35521  -0.35338
 Alpha  occ. eigenvalues --   -0.34795  -0.34477  -0.34162  -0.33945  -0.31611
 Alpha  occ. eigenvalues --   -0.31352  -0.30816  -0.30586  -0.30282
 Alpha virt. eigenvalues --   -0.00092   0.00220   0.00704   0.00762   0.01495
 Alpha virt. eigenvalues --    0.02447   0.02812   0.03412   0.03615   0.03814
 Alpha virt. eigenvalues --    0.04528   0.04656   0.05240   0.07070   0.07416

 Mulliken charges:
               1
     1  Mn   0.227341
     2  C    0.163677
     3  O   -0.123476
     4  C    0.192580
     5  O   -0.124584
     6  C    0.008020
     7  N   -0.120540
     8  C   -0.158937
     9  C   -0.057847
    10  C    0.043225
    11  H    0.141395
    12  H    0.141162
    13  N   -0.097443
    14  C   -0.107158
    15  C    0.242345
    16  C   -0.238621
    17  C   -0.067975
    18  C   -0.210653
    19  H    0.133334
    20  H    0.159869
    21  N   -0.111619
    22  C   -0.127535
    23  C   -0.146636
    24  H    0.143464
    25  C    0.007691
    26  H    0.182007
    27  C    0.034209
    28  H    0.168789
    29  H    0.140382
    30  O   -0.141631
    31  S   -0.137957
    32  S   -0.009072
    33  C   -0.018753
    34  C    0.119144
    35  C   -0.185702
    36  C   -0.114716
    37  C   -0.137876
    38  C    0.034807
    39  C   -0.075471
    40  H    0.133855
    41  H    0.141554
    42  H    0.127230
    43  C   -0.097192
    44  C    0.057715
    45  C   -0.147296
    46  C   -0.110360
    47  C   -0.206824
    48  C    0.155883
    49  H    0.126810
    50  H    0.141650
    51  H    0.135096
    52  C    0.050289
    53  H    0.139879
    54  C    0.051980
    55  H    0.116484
    56  H    0.133573
    57  C   -0.173667
    58  C   -0.004292
    59  H    0.102458
    60  H    0.135909
    61  Br  -0.779973
 Sum of Mulliken charges =  -0.00000

 Dipole moment (field-independent basis, Debye):
    X=            -17.2148    Y=              2.0874    Z=             -1.2112  Tot=             17.3831
 Quadrupole moment (field-independent basis, Debye-Ang):
   XX=           -334.1601   YY=           -253.0076   ZZ=           -258.3205
   XY=              2.0645   XZ=              0.5201   YZ=             28.5676

 Normal termination of Gaussian 16 at Wed Mar 22 14:32:06 2023.
