 Gaussian 16, Revision A.03,
 Gaussian 16:  ES64L-G16RevA.03 25-Dec-2016

 -----------------------------------------------
 # wB97XD Gen SCRF=(Solvent=TetraHydroFuran) Opt
 -----------------------------------------------

 ------------------------
 Thian React Optimization
 ------------------------
 Symbolic Z-matrix:
 Charge =  0 Multiplicity = 1

 SCF Done:  E(RwB97XD) =  -6140.25769064     A.U. after   18 cycles
 SCF Done:  E(RwB97XD) =  -6140.25783483     A.U. after   16 cycles
 SCF Done:  E(RwB97XD) =  -6140.25544792     A.U. after   17 cycles
 SCF Done:  E(RwB97XD) =  -6140.25833691     A.U. after   15 cycles
 SCF Done:  E(RwB97XD) =  -6140.25866078     A.U. after   15 cycles
 SCF Done:  E(RwB97XD) =  -6140.25887548     A.U. after   14 cycles
 SCF Done:  E(RwB97XD) =  -6140.25867888     A.U. after   13 cycles
 SCF Done:  E(RwB97XD) =  -6140.25894165     A.U. after   13 cycles
 SCF Done:  E(RwB97XD) =  -6140.25892266     A.U. after   13 cycles
 SCF Done:  E(RwB97XD) =  -6140.25892564     A.U. after   13 cycles
 SCF Done:  E(RwB97XD) =  -6140.25898502     A.U. after   11 cycles
 SCF Done:  E(RwB97XD) =  -6140.25899628     A.U. after   12 cycles
 SCF Done:  E(RwB97XD) =  -6140.25898626     A.U. after   12 cycles
 SCF Done:  E(RwB97XD) =  -6140.25898017     A.U. after   12 cycles
 SCF Done:  E(RwB97XD) =  -6140.25899256     A.U. after   12 cycles
 SCF Done:  E(RwB97XD) =  -6140.25898173     A.U. after   11 cycles
 SCF Done:  E(RwB97XD) =  -6140.25899170     A.U. after   11 cycles
 SCF Done:  E(RwB97XD) =  -6140.25899084     A.U. after    9 cycles
 SCF Done:  E(RwB97XD) =  -6140.25899002     A.U. after    7 cycles
 SCF Done:  E(RwB97XD) =  -6140.25898924     A.U. after    8 cycles
 Optimization completed.
    -- Stationary point found.

                         Standard orientation:
 ---------------------------------------------------------------------
 Center     Atomic      Atomic             Coordinates (Angstroms)
 Number     Number       Type             X           Y           Z
 ---------------------------------------------------------------------
      1         25           0       -1.338531    0.040750   -1.394041
      2          6           0       -2.303914    1.387878   -2.183261
      3          8           0       -2.876911    2.238728   -2.681938
      4          6           0       -2.304546   -1.257572   -2.260581
      5          8           0       -2.878946   -2.076476   -2.808769
      6          6           0       -0.165175    0.078984   -2.784812
      7          7           0       -0.233632   -1.506468   -0.372567
      8          6           0       -0.185047   -3.368953    1.137987
      9          6           0        1.204405   -3.425066    1.067983
     10          6           0        1.095191   -1.601983   -0.469386
     11          1           0       -0.748992   -4.067536    1.756194
     12          1           0        1.765375   -4.163275    1.644728
     13          7           0       -2.606891   -0.003480    0.174266
     14          6           0       -3.339232   -0.031132    1.065835
     15          6           0       -4.199207   -0.068047    2.209560
     16          6           0       -3.623307   -0.113246    3.490176
     17          6           0       -4.454812   -0.149240    4.603327
     18          6           0       -5.591284   -0.059781    2.036682
     19          1           0       -2.537835   -0.119586    3.603601
     20          1           0       -6.008643   -0.025210    1.025140
     21          7           0       -0.232061    1.527495   -0.288070
     22          6           0       -0.179430    3.299370    1.327585
     23          6           0        1.209807    3.359946    1.256862
     24          1           0       -0.741711    3.960699    1.986913
     25          6           0       -0.861173   -2.396972    0.415179
     26          1           0       -1.947630   -2.334100    0.463033
     27          6           0       -0.857449    2.370287    0.552057
     28          1           0       -1.943730    2.303898    0.599791
     29          1           0       -4.020046   -0.184032    5.603560
     30          8           0        0.553621    0.103080   -3.675390
     31         16           0        3.350839   -0.036277    1.366133
     32         16           0        6.500715   -0.024326    0.848497
     33          6           0        1.869520   -2.516639    0.246043
     34          6           0        3.350749   -2.499588    0.094918
     35          6           0        4.001954   -3.606636   -0.459371
     36          6           0        5.380539   -3.599139   -0.655451
     37          6           0        6.130514   -2.481254   -0.302465
     38          6           0        5.503339   -1.384103    0.292694
     39          6           0        4.116760   -1.388875    0.497606
     40          1           0        3.410912   -4.473965   -0.760624
     41          1           0        5.872686   -4.464064   -1.103228
     42          1           0        7.207940   -2.458717   -0.477053
     43          6           0        4.118301    1.359480    0.570345
     44          6           0        5.504702    1.363642    0.364427
     45          6           0        6.132778    2.489394   -0.173630
     46          6           0        5.383979    3.625097   -0.467335
     47          6           0        4.005619    3.624379   -0.269330
     48          6           0        3.353548    2.490831    0.227290
     49          1           0        7.210024    2.474516   -0.350135
     50          1           0        5.876886    4.511426   -0.870167
     51          1           0        3.415468    4.507088   -0.524062
     52          6           0        1.872587    2.500984    0.381600
     53          1           0        1.772427    4.063340    1.874070
     54          6           0        1.096387    1.629492   -0.383846
     55          1           0        1.596751    0.996024   -1.114260
     56          1           0        1.597407   -0.926371   -1.159465
     57          6           0       -5.842117   -0.140441    4.439461
     58          6           0       -6.406410   -0.096215    3.163856
     59          1           0       -7.490896   -0.090007    3.043221
     60          1           0       -6.489901   -0.168467    5.318054
     61         35           0       -6.255359    0.056984   -1.674315
 ---------------------------------------------------------------------

 The electronic state is 1-A.
 Alpha  occ. eigenvalues -- -482.95253-235.70695 -89.04470 -89.04064 -62.53316
 Alpha  occ. eigenvalues --  -56.33868 -56.33866 -56.33865 -27.47734 -23.53538
 Alpha  occ. eigenvalues --  -23.53287 -23.53279 -19.34918 -19.34606 -19.34604
 Alpha  occ. eigenvalues --  -14.51029 -14.51027 -14.50018 -10.42338 -10.42146
 Alpha  occ. eigenvalues --  -10.42141 -10.39281 -10.37363 -10.37359 -10.36839
 Alpha  occ. eigenvalues --  -10.36839 -10.36242 -10.36238 -10.35965 -10.35880
 Alpha  occ. eigenvalues --  -10.35876 -10.34937 -10.34936 -10.34830 -10.34829
 Alpha  occ. eigenvalues --  -10.34668 -10.34665 -10.33875 -10.33656 -10.33656
 Alpha  occ. eigenvalues --  -10.33036 -10.33035 -10.32979 -10.32862 -10.32833
 Alpha  occ. eigenvalues --  -10.32833 -10.32615 -10.32614 -10.32534 -10.32224
 Alpha  occ. eigenvalues --   -8.70081  -8.09540  -8.09207  -6.51758  -6.51755
 Alpha  occ. eigenvalues --   -6.51749  -6.05004  -6.04668  -6.04611  -6.04272
 Alpha  occ. eigenvalues --   -6.03978  -6.03641  -3.26951  -2.62267  -2.62266
 Alpha  occ. eigenvalues --   -2.62261  -2.62258  -2.62257  -2.12532  -2.11969
 Alpha  occ. eigenvalues --   -2.11947  -1.23835  -1.23589  -1.23548  -1.08834
 Alpha  occ. eigenvalues --   -1.08488  -1.05329  -1.01538  -0.99138  -0.98306
 Alpha  occ. eigenvalues --   -0.95119  -0.93983  -0.92504  -0.91687  -0.90293
 Alpha  occ. eigenvalues --   -0.88863  -0.88689  -0.86818  -0.86521  -0.85878
 Alpha  occ. eigenvalues --   -0.83275  -0.79202  -0.76531  -0.76441  -0.75839
 Alpha  occ. eigenvalues --   -0.75526  -0.75382  -0.74447  -0.72799  -0.72126
 Alpha  occ. eigenvalues --   -0.70876  -0.70335  -0.68773  -0.67463  -0.66022
 Alpha  occ. eigenvalues --   -0.65421  -0.65397  -0.65259  -0.64918  -0.62922
 Alpha  occ. eigenvalues --   -0.62108  -0.61502  -0.60541  -0.60196  -0.58864
 Alpha  occ. eigenvalues --   -0.58607  -0.58228  -0.57845  -0.57603  -0.57584
 Alpha  occ. eigenvalues --   -0.57258  -0.57114  -0.56659  -0.55970  -0.55507
 Alpha  occ. eigenvalues --   -0.55129  -0.55038  -0.54614  -0.54461  -0.54173
 Alpha  occ. eigenvalues --   -0.54018  -0.53434  -0.53022  -0.52973  -0.52732
 Alpha  occ. eigenvalues --   -0.52562  -0.52413  -0.52289  -0.51893  -0.51130
 Alpha  occ. eigenvalues --   -0.50826  -0.50021  -0.49485  -0.48863  -0.48635
 Alpha  occ. eigenvalues --   -0.48097  -0.47820  -0.46545  -0.46159  -0.45665
 Alpha  occ. eigenvalues --   -0.45118  -0.44692  -0.44666  -0.44227  -0.42518
 Alpha  occ. eigenvalues --   -0.41907  -0.40867  -0.40483  -0.40255  -0.38897
 Alpha  occ. eigenvalues --   -0.37776  -0.37408  -0.36343  -0.35898  -0.35719
 Alpha  occ. eigenvalues --   -0.34819  -0.32831  -0.32389  -0.32277  -0.31733
 Alpha  occ. eigenvalues --   -0.30553  -0.29567  -0.29535  -0.29492
 Alpha virt. eigenvalues --   -0.00818  -0.00215  -0.00074   0.00317   0.01448
 Alpha virt. eigenvalues --    0.02245   0.02916   0.03416   0.03811   0.03846
 Alpha virt. eigenvalues --    0.04072   0.04451   0.04832   0.06682   0.06879

 Mulliken charges:
               1
     1  Mn  -0.727679
     2  C    0.360989
     3  O   -0.037226
     4  C    0.360687
     5  O   -0.037399
     6  C    0.307970
     7  N   -0.215845
     8  C   -0.039251
     9  C    0.067426
    10  C    0.161386
    11  H    0.065849
    12  H    0.058568
    13  N    0.106564
    14  C    0.004799
    15  C   -0.172535
    16  C    0.024068
    17  C   -0.025695
    18  C    0.042822
    19  H    0.048258
    20  H    0.070072
    21  N   -0.215887
    22  C   -0.039137
    23  C    0.067923
    24  H    0.065873
    25  C    0.110988
    26  H    0.077700
    27  C    0.110942
    28  H    0.077797
    29  H    0.052746
    30  O   -0.052792
    31  S    0.093924
    32  S    0.091833
    33  C   -0.097894
    34  C   -0.003262
    35  C   -0.015043
    36  C   -0.017284
    37  C   -0.003706
    38  C   -0.083894
    39  C   -0.049147
    40  H    0.041070
    41  H    0.052783
    42  H    0.043075
    43  C   -0.048746
    44  C   -0.083998
    45  C   -0.003695
    46  C   -0.017361
    47  C   -0.014639
    48  C   -0.003853
    49  H    0.043059
    50  H    0.052796
    51  H    0.041017
    52  C   -0.098227
    53  H    0.058581
    54  C    0.160222
    55  H    0.041386
    56  H    0.040256
    57  C   -0.000299
    58  C   -0.020902
    59  H    0.054860
    60  H    0.056002
    61  Br  -0.988898
 Sum of Mulliken charges =  -0.00000

 Dipole moment (field-independent basis, Debye):
    X=             24.6364    Y=             -0.4464    Z=             13.7012  Tot=             28.1935
 Quadrupole moment (field-independent basis, Debye-Ang):
   XX=           -382.4394   YY=           -226.2511   ZZ=           -271.5442
   XY=              2.7646   XZ=            -85.6896   YZ=              1.2017

 Normal termination of Gaussian 16 at Sat Mar 18 13:04:02 2023.
