 Gaussian 16, Revision A.03,
 Gaussian 16:  ES64L-G16RevA.03 25-Dec-2016

 -----------------------------------------------
 # wB97XD Gen SCRF=(Solvent=TetraHydroFuran) Opt
 -----------------------------------------------

 ------------------------
 Thian React Optimization
 ------------------------
 Symbolic Z-matrix:
 Charge =  0 Multiplicity = 1

 SCF Done:  E(RwB97XD) =  -6140.25106920     A.U. after   18 cycles
 SCF Done:  E(RwB97XD) =  -6140.25658362     A.U. after   15 cycles
 SCF Done:  E(RwB97XD) =  -6140.25215575     A.U. after   16 cycles
 SCF Done:  E(RwB97XD) =  -6140.25901982     A.U. after   15 cycles
 SCF Done:  E(RwB97XD) =  -6140.25954502     A.U. after   17 cycles
 SCF Done:  E(RwB97XD) =  -6140.25979824     A.U. after   16 cycles
 SCF Done:  E(RwB97XD) =  -6140.26029464     A.U. after   14 cycles
 SCF Done:  E(RwB97XD) =  -6140.26032994     A.U. after   13 cycles
 SCF Done:  E(RwB97XD) =  -6140.26038512     A.U. after   13 cycles
 SCF Done:  E(RwB97XD) =  -6140.26039741     A.U. after   12 cycles
 SCF Done:  E(RwB97XD) =  -6140.26040206     A.U. after   11 cycles
 SCF Done:  E(RwB97XD) =  -6140.26040515     A.U. after   11 cycles
 SCF Done:  E(RwB97XD) =  -6140.26040638     A.U. after   11 cycles
 SCF Done:  E(RwB97XD) =  -6140.26040680     A.U. after   10 cycles
 SCF Done:  E(RwB97XD) =  -6140.26040716     A.U. after    9 cycles
 SCF Done:  E(RwB97XD) =  -6140.26040739     A.U. after    9 cycles
 SCF Done:  E(RwB97XD) =  -6140.26040752     A.U. after    7 cycles
 SCF Done:  E(RwB97XD) =  -6140.26040764     A.U. after    8 cycles
 Optimization completed.
    -- Stationary point found.

                         Standard orientation:
 ---------------------------------------------------------------------
 Center     Atomic      Atomic             Coordinates (Angstroms)
 Number     Number       Type             X           Y           Z
 ---------------------------------------------------------------------
      1         25           0       -1.228733   -0.513758    1.821811
      2          6           0       -1.877594   -1.934311    2.773711
      3          8           0       -2.278149   -2.824376    3.367236
      4          6           0       -2.273406    0.672541    2.756630
      5          8           0       -2.906690    1.408407    3.354746
      6          6           0        0.097088   -0.294282    3.050382
      7          7           0       -0.509827    1.110897    0.611480
      8          6           0       -0.939368    2.872934   -0.955169
      9          6           0        0.421231    3.137511   -1.075462
     10          6           0        0.790928    1.406470    0.526005
     11          1           0       -1.683199    3.445234   -1.510055
     12          1           0        0.784681    3.918363   -1.746916
     13          7           0       -2.680113   -0.750052    0.438070
     14          6           0       -3.517572   -0.890785   -0.343215
     15          6           0       -4.514301   -1.114130   -1.344809
     16          6           0       -4.148507   -1.036091   -2.696744
     17          6           0       -5.112137   -1.262875   -3.673145
     18          6           0       -5.830772   -1.415720   -0.967652
     19          1           0       -3.120588   -0.795101   -2.971776
     20          1           0       -6.100493   -1.461425    0.087929
     21          7           0       -0.044769   -1.876347    0.635789
     22          6           0        0.093902   -3.688766   -0.929812
     23          6           0        1.476344   -3.546255   -1.015613
     24          1           0       -0.432841   -4.450330   -1.505020
     25          6           0       -1.364818    1.853329   -0.114189
     26          1           0       -2.434326    1.651874   -0.012304
     27          6           0       -0.625403   -2.834225   -0.107279
     28          1           0       -1.708596   -2.923689   -0.036642
     29          1           0       -4.839271   -1.200374   -4.727744
     30          8           0        0.911651   -0.156534    3.842608
     31         16           0        3.034653    0.093533   -1.510709
     32         16           0        6.185301    0.590095   -1.383614
     33          6           0        1.317931    2.384652   -0.316878
     34          6           0        2.790570    2.601986   -0.357141
     35          6           0        3.318976    3.828203    0.060731
     36          6           0        4.694545    4.043373    0.082472
     37          6           0        5.566527    3.032169   -0.309988
     38          6           0        5.056009    1.816976   -0.772361
     39          6           0        3.671768    1.598518   -0.803590
     40          1           0        2.636795    4.612693    0.394829
     41          1           0        5.091741    5.000150    0.425602
     42          1           0        6.646820    3.184696   -0.269813
     43          6           0        4.098379   -1.115875   -0.752734
     44          6           0        5.482511   -0.897971   -0.717234
     45          6           0        6.335959   -1.879876   -0.208318
     46          6           0        5.812683   -3.094146    0.226182
     47          6           0        4.437753   -3.313875    0.197223
     48          6           0        3.564701   -2.325127   -0.267855
     49          1           0        7.410539   -1.692118   -0.164917
     50          1           0        6.481143   -3.868492    0.606214
     51          1           0        4.025853   -4.257489    0.561006
     52          6           0        2.095106   -2.563827   -0.244633
     53          1           0        2.066869   -4.185663   -1.674969
     54          6           0        1.286624   -1.781936    0.581824
     55          1           0        1.765112   -1.051546    1.231875
     56          1           0        1.474862    0.852410    1.166599
     57          6           0       -6.423797   -1.564775   -3.303416
     58          6           0       -6.781573   -1.641693   -1.956144
     59          1           0       -7.809910   -1.872590   -1.673971
     60          1           0       -7.177099   -1.739084   -4.074236
     61         35           0       -5.058637    2.446120   -0.051045
 ---------------------------------------------------------------------

 The electronic state is 1-A.
 Alpha  occ. eigenvalues -- -482.95263-235.70788 -89.04291 -89.03953 -62.53323
 Alpha  occ. eigenvalues --  -56.33876 -56.33874 -56.33871 -27.47853 -23.53651
 Alpha  occ. eigenvalues --  -23.53407 -23.53394 -19.34989 -19.34860 -19.34685
 Alpha  occ. eigenvalues --  -14.51047 -14.50389 -14.49886 -10.42416 -10.42394
 Alpha  occ. eigenvalues --  -10.42216 -10.39205 -10.37358 -10.36891 -10.36788
 Alpha  occ. eigenvalues --  -10.36141 -10.36028 -10.35905 -10.35798 -10.35711
 Alpha  occ. eigenvalues --  -10.35575 -10.34930 -10.34843 -10.34602 -10.34408
 Alpha  occ. eigenvalues --  -10.34343 -10.34189 -10.33705 -10.33658 -10.33519
 Alpha  occ. eigenvalues --  -10.32988 -10.32856 -10.32807 -10.32747 -10.32718
 Alpha  occ. eigenvalues --  -10.32587 -10.32579 -10.32425 -10.32395 -10.32308
 Alpha  occ. eigenvalues --   -8.70087  -8.09363  -8.09095  -6.51768  -6.51760
 Alpha  occ. eigenvalues --   -6.51751  -6.04827  -6.04556  -6.04434  -6.04161
 Alpha  occ. eigenvalues --   -6.03800  -6.03530  -3.27054  -2.62276  -2.62275
 Alpha  occ. eigenvalues --   -2.62268  -2.62261  -2.62260  -2.12615  -2.12093
 Alpha  occ. eigenvalues --   -2.12040  -1.23923  -1.23811  -1.23656  -1.08721
 Alpha  occ. eigenvalues --   -1.07879  -1.05219  -1.01395  -0.98978  -0.98287
 Alpha  occ. eigenvalues --   -0.94920  -0.93681  -0.92356  -0.91443  -0.89944
 Alpha  occ. eigenvalues --   -0.88656  -0.88494  -0.86683  -0.86572  -0.85627
 Alpha  occ. eigenvalues --   -0.83084  -0.79062  -0.76477  -0.75891  -0.75721
 Alpha  occ. eigenvalues --   -0.75368  -0.74992  -0.74390  -0.72637  -0.72192
 Alpha  occ. eigenvalues --   -0.70732  -0.70080  -0.68832  -0.67323  -0.66109
 Alpha  occ. eigenvalues --   -0.65609  -0.65442  -0.65149  -0.64585  -0.62642
 Alpha  occ. eigenvalues --   -0.61922  -0.61120  -0.60324  -0.60115  -0.58947
 Alpha  occ. eigenvalues --   -0.58475  -0.58014  -0.57822  -0.57597  -0.57427
 Alpha  occ. eigenvalues --   -0.57183  -0.57142  -0.56865  -0.55847  -0.55572
 Alpha  occ. eigenvalues --   -0.55038  -0.54966  -0.54694  -0.54323  -0.54143
 Alpha  occ. eigenvalues --   -0.53720  -0.53329  -0.53159  -0.52818  -0.52568
 Alpha  occ. eigenvalues --   -0.52381  -0.52277  -0.52199  -0.51592  -0.51179
 Alpha  occ. eigenvalues --   -0.50728  -0.49845  -0.49345  -0.48557  -0.48495
 Alpha  occ. eigenvalues --   -0.47983  -0.47572  -0.46381  -0.46155  -0.45423
 Alpha  occ. eigenvalues --   -0.45019  -0.44667  -0.44533  -0.44073  -0.42368
 Alpha  occ. eigenvalues --   -0.41537  -0.40702  -0.40133  -0.40013  -0.38755
 Alpha  occ. eigenvalues --   -0.37569  -0.36996  -0.36251  -0.35762  -0.35709
 Alpha  occ. eigenvalues --   -0.34612  -0.32922  -0.32444  -0.32335  -0.31571
 Alpha  occ. eigenvalues --   -0.30419  -0.29603  -0.29511  -0.29419
 Alpha virt. eigenvalues --   -0.00660  -0.00140   0.00373   0.00581   0.01675
 Alpha virt. eigenvalues --    0.02451   0.03041   0.03407   0.03871   0.03928
 Alpha virt. eigenvalues --    0.04043   0.04652   0.04783   0.06519   0.06840

 Mulliken charges:
               1
     1  Mn  -0.729851
     2  C    0.358335
     3  O   -0.051476
     4  C    0.366187
     5  O   -0.037159
     6  C    0.306225
     7  N   -0.213677
     8  C   -0.043779
     9  C    0.066750
    10  C    0.155493
    11  H    0.075093
    12  H    0.054885
    13  N    0.118246
    14  C   -0.011762
    15  C   -0.148818
    16  C    0.035849
    17  C   -0.023703
    18  C    0.051671
    19  H    0.050189
    20  H    0.058253
    21  N   -0.213410
    22  C   -0.038641
    23  C    0.070009
    24  H    0.064707
    25  C    0.106639
    26  H    0.091763
    27  C    0.112387
    28  H    0.071125
    29  H    0.053099
    30  O   -0.052657
    31  S    0.095761
    32  S    0.090572
    33  C   -0.097393
    34  C   -0.002065
    35  C   -0.015706
    36  C   -0.017546
    37  C   -0.005079
    38  C   -0.083422
    39  C   -0.051405
    40  H    0.041741
    41  H    0.052155
    42  H    0.042062
    43  C   -0.048274
    44  C   -0.083806
    45  C   -0.004203
    46  C   -0.017912
    47  C   -0.014849
    48  C   -0.005245
    49  H    0.042674
    50  H    0.052136
    51  H    0.039583
    52  C   -0.100557
    53  H    0.058429
    54  C    0.155271
    55  H    0.043040
    56  H    0.032353
    57  C   -0.000682
    58  C   -0.024670
    59  H    0.054527
    60  H    0.055833
    61  Br  -0.985294
 Sum of Mulliken charges =  -0.00000

 Dipole moment (field-independent basis, Debye):
    X=             17.3178    Y=            -13.6278    Z=             -4.1826  Tot=             22.4303
 Quadrupole moment (field-independent basis, Debye-Ang):
   XX=           -309.9512   YY=           -254.0639   ZZ=           -269.5243
   XY=             66.0559   XZ=             26.7002   YZ=              6.4220

 Normal termination of Gaussian 16 at Fri Mar 17 08:07:46 2023.
